 &FCI NORB=   6,NELEC=   4,MS2=   0,
  ORBSYM=1,1,1,1,1,1,
  ISYM=   1,
  IUHF=1,
 &END
  0.5427122672050970   1   1   1   1
 -0.0075580060157344   2   1   1   1
  0.0065435320734987   2   1   2   1
  0.1854353387008902   2   2   1   1
 -0.0075580060157346   2   2   2   1
  0.5427122672050959   2   2   2   2
 -0.1960434944560862   3   1   1   1
  0.0115568872360544   3   1   2   1
 -0.0159546550252509   3   1   2   2
  0.1557703229594286   3   1   3   1
  0.0403160468659182   3   2   1   1
  0.0031486878886849   3   2   2   1
 -0.0269004394807773   3   2   2   2
 -0.0188468695118007   3   2   3   1
  0.0100565564343859   3   2   3   2
  0.4909448450785135   3   3   1   1
 -0.0104623396202302   3   3   2   1
  0.1683533508597068   3   3   2   2
 -0.2009620599646126   3   3   3   1
  0.0375039793583061   3   3   3   2
  0.4741564162692480   3   3   3   3
 -0.0269004394807776   4   1   1   1
  0.0031486878886850   4   1   2   1
  0.0403160468659179   4   1   2   2
  0.0155577660512897   4   1   3   1
 -0.0043275770150206   4   1   3   2
 -0.0249604762719315   4   1   3   3
  0.0100565564343865   4   1   4   1
 -0.0159546550252504   4   2   1   1
  0.0115568872360539   4   2   2   1
 -0.1960434944560839   4   2   2   2
 -0.0003054421017298   4   2   3   1
  0.0155577660512875   4   2   3   2
 -0.0114798299258393   4   2   3   3
 -0.0188468695118025   4   2   4   1
  0.1557703229594302   4   2   4   2
  0.0277535606021963   4   3   1   1
 -0.0000422369777660   4   3   2   1
  0.0277535606021953   4   3   2   2
 -0.0136713889834241   4   3   3   1
  0.0023758202754213   4   3   3   2
  0.0261250001131535   4   3   3   3
  0.0023758202754217   4   3   4   1
 -0.0136713889834275   4   3   4   2
  0.0052220574889542   4   3   4   3
  0.1683533508597093   4   4   1   1
 -0.0104623396202292   4   4   2   1
  0.4909448450785126   4   4   2   2
 -0.0114798299258421   4   4   3   1
 -0.0249604762719274   4   4   3   2
  0.1510305307530516   4   4   3   3
  0.0375039793583092   4   4   4   1
 -0.2009620599646138   4   4   4   2
  0.0261250001131600   4   4   4   3
  0.4741564162692495   4   4   4   4
  0.0073018578585326   5   1   1   1
  0.0000389277418362   5   1   2   1
  0.0019365464719788   5   1   2   2
 -0.0093134737365174   5   1   3   1
  0.0009979815976139   5   1   3   2
  0.0091753250636227   5   1   3   3
  0.0005764186004841   5   1   4   1
 -0.0009739893914133   5   1   4   2
  0.0010245689655335   5   1   4   3
  0.0017135761753790   5   1   4   4
  0.0023359823137071   5   1   5   1
 -0.0042973995161303   5   2   1   1
 -0.0004286679790935   5   2   2   1
 -0.0070980232593606   5   2   2   2
  0.0014458597770565   5   2   3   1
 -0.0012574794544342   5   2   3   2
 -0.0035889129410945   5   2   3   3
 -0.0009846083938759   5   2   4   1
  0.0094396013378831   5   2   4   2
 -0.0012761304535677   5   2   4   3
 -0.0091186704713729   5   2   4   4
 -0.0007288117657540   5   2   5   1
  0.0030612609532692   5   2   5   2
 -0.0322822449464968   5   3   1   1
  0.0006949346549944   5   3   2   1
 -0.0109954457505393   5   3   2   2
  0.0144900470602413   5   3   3   1
 -0.0024717167339829   5   3   3   2
 -0.0301717412073226   5   3   3   3
  0.0015593242215515   5   3   4   1
  0.0008545322374898   5   3   4   2
 -0.0022242215975279   5   3   4   3
 -0.0087060792788254   5   3   4   4
  0.0010095225720983   5   3   5   1
 -0.0008794448989611   5   3   5   2
  0.0052964832748400   5   3   5   3
  0.0093876215045663   5   4   1   1
 -0.0008049342390680   5   4   2   1
  0.0321521755490787   5   4   2   2
 -0.0005216434856979   5   4   3   1
 -0.0018022735186013   5   4   3   2
  0.0074146838660776   5   4   3   3
  0.0024899590870675   5   4   4   1
 -0.0147833500952986   5   4   4   2
  0.0020711408068163   5   4   4   3
  0.0299800506203876   5   4   4   4
 -0.0009114561162044   5   4   5   1
  0.0014148892702130   5   4   5   2
 -0.0029596837181760   5   4   5   3
  0.0060426438485243   5   4   5   4
  0.0862675541729110   5   5   1   1
 -0.0068705701236189   5   5   2   1
  0.1048127239543386   5   5   2   2
 -0.0054905557016323   5   5   3   1
 -0.0080851349396967   5   5   3   2
  0.0824532630116201   5   5   3   3
 -0.0041039050803191   5   5   4   1
 -0.0068125307240863   5   5   4   2
 -0.0050805008310839   5   5   4   3
  0.0993491586097082   5   5   4   4
  0.0053597199504550   5   5   5   1
 -0.0053708965344505   5   5   5   2
  0.0129758078593837   5   5   5   3
 -0.0149264908605264   5   5   5   4
  0.2351337455964058   5   5   5   5
  0.0042261551850587   6   1   1   1
  0.0012023736422169   6   1   2   1
  0.0075477738456197   6   1   2   2
 -0.0071175730243278   6   1   3   1
  0.0006722511971661   6   1   3   2
  0.0061981445822806   6   1   3   3
  0.0023042063742015   6   1   4   1
 -0.0013422518544896   6   1   4   2
  0.0013800755209501   6   1   4   3
  0.0054718985314808   6   1   4   4
  0.0026273313520417   6   1   5   1
 -0.0002040536015789   6   1   5   2
  0.0010368190807666   6   1   5   3
  0.0000060338903072   6   1   5   4
  0.0016146602284830   6   1   5   5
  0.0036695520539582   6   1   6   1
  0.0066517403484821   6   2   1   1
  0.0011262345166896   6   2   2   1
  0.0023311012899361   6   2   2   2
 -0.0010904653329755   6   2   3   1
  0.0021005170827517   6   2   3   2
  0.0046961805141610   6   2   3   3
  0.0004394164224364   6   2   4   1
 -0.0052035492690637   6   2   4   2
  0.0011029334327316   6   2   4   3
  0.0040418219541635   6   2   4   4
  0.0000927944851338   6   2   5   1
 -0.0026024768343984   6   2   5   2
  0.0000293903009405   6   2   5   3
 -0.0012346962578638   6   2   5   4
  0.0016998511088770   6   2   5   5
 -0.0004423059774865   6   2   6   1
  0.0026552572262315   6   2   6   2
 -0.0248703763654389   6   3   1   1
  0.0008370130000119   6   3   2   1
 -0.0023399509690927   6   3   2   2
  0.0119099235570947   6   3   3   1
 -0.0021896331150682   6   3   3   2
 -0.0230892568950477   6   3   3   3
  0.0020830736945781   6   3   4   1
 -0.0005571834898336   6   3   4   2
 -0.0010766089265606   6   3   4   3
 -0.0027197067773933   6   3   4   4
  0.0010759509799916   6   3   5   1
  0.0004223802837757   6   3   5   2
  0.0038824887646651   6   3   5   3
 -0.0000806260288072   6   3   5   4
  0.0029631445022177   6   3   5   5
  0.0019044614065094   6   3   6   1
 -0.0011589950873236   6   3   6   2
  0.0050001690136263   6   3   6   3
 -0.0001800623460244   6   4   1   1
  0.0006422593435763   6   4   2   1
 -0.0181808501151203   6   4   2   2
 -0.0006804985732844   6   4   3   1
  0.0016623011431568   6   4   3   2
 -0.0009821347487205   6   4   3   3
 -0.0017386994897787   6   4   4   1
  0.0091301015605306   6   4   4   2
 -0.0007450509469603   6   4   4   3
 -0.0168421283138440   6   4   4   4
 -0.0003592121601629   6   4   5   1
 -0.0011669532843316   6   4   5   2
  0.0001495113380267   6   4   5   3
 -0.0035964500102953   6   4   5   4
  0.0070129931999609   6   4   5   5
 -0.0012209374464660   6   4   6   1
  0.0016035909574236   6   4   6   2
 -0.0021311321535676   6   4   6   3
  0.0038423826559397   6   4   6   4
  0.0614596493290527   6   5   1   1
 -0.0002046103026566   6   5   2   1
 -0.0577204211269645   6   5   2   2
 -0.0070536802480920   6   5   3   1
  0.0126587223081336   6   5   3   2
  0.0527432681372429   6   5   3   3
 -0.0129328942032204   6   5   4   1
  0.0064508741740677   6   5   4   2
  0.0000431489394709   6   5   4   3
 -0.0497126552212652   6   5   4   4
  0.0013113207952787   6   5   5   1
  0.0003742791651151   6   5   5   2
  0.0018762941770078   6   5   5   3
  0.0040906050898021   6   5   5   4
 -0.0221798964815820   6   5   5   5
  0.0017061774125695   6   5   6   1
 -0.0020462537222332   6   5   6   2
  0.0105351416354955   6   5   6   3
 -0.0109985118310699   6   5   6   4
  0.1785256602370123   6   5   6   5
  0.1141267971890889   6   6   1   1
 -0.0073025073671201   6   6   2   1
  0.0895015553034592   6   6   2   2
 -0.0084839156563410   6   6   3   1
 -0.0037334696584723   6   6   3   2
  0.1061893114047330   6   6   3   3
 -0.0090194229615738   6   6   4   1
 -0.0055487558664945   6   6   4   2
 -0.0047094214474856   6   6   4   3
  0.0851238850285465   6   6   4   4
  0.0055002391227699   6   6   5   1
 -0.0047595207227899   6   6   5   2
  0.0125078375992717   6   6   5   3
 -0.0116859107618474   6   6   5   4
  0.2253040459016890   6   6   5   5
  0.0021594434012693   6   6   6   1
  0.0005686208906934   6   6   6   2
  0.0077232601329325   6   6   6   3
  0.0018451536943576   6   6   6   4
  0.0409934949271698   6   6   6   5
  0.2530092669970966   6   6   6   6
  0.0000000000000000   0   0   0   0
  0.5427122672050974   1   1   1   1
 -0.0075580060157343   2   1   1   1
  0.0065435320734987   2   1   2   1
  0.1854353387008904   2   2   1   1
 -0.0075580060157345   2   2   2   1
  0.5427122672050968   2   2   2   2
 -0.1960434944560861   3   1   1   1
  0.0115568872360544   3   1   2   1
 -0.0159546550252509   3   1   2   2
  0.1557703229594285   3   1   3   1
  0.0403160468659181   3   2   1   1
  0.0031486878886849   3   2   2   1
 -0.0269004394807775   3   2   2   2
 -0.0188468695118007   3   2   3   1
  0.0100565564343859   3   2   3   2
  0.4909448450785138   3   3   1   1
 -0.0104623396202301   3   3   2   1
  0.1683533508597069   3   3   2   2
 -0.2009620599646124   3   3   3   1
  0.0375039793583060   3   3   3   2
  0.4741564162692481   3   3   3   3
 -0.0269004394807781   4   1   1   1
  0.0031486878886850   4   1   2   1
  0.0403160468659178   4   1   2   2
  0.0155577660512899   4   1   3   1
 -0.0043275770150207   4   1   3   2
 -0.0249604762719320   4   1   3   3
  0.0100565564343865   4   1   4   1
 -0.0159546550252507   4   2   1   1
  0.0115568872360539   4   2   2   1
 -0.1960434944560853   4   2   2   2
 -0.0003054421017298   4   2   3   1
  0.0155577660512876   4   2   3   2
 -0.0114798299258396   4   2   3   3
 -0.0188468695118026   4   2   4   1
  0.1557703229594311   4   2   4   2
  0.0277535606021966   4   3   1   1
 -0.0000422369777660   4   3   2   1
  0.0277535606021951   4   3   2   2
 -0.0136713889834242   4   3   3   1
  0.0023758202754214   4   3   3   2
  0.0261250001131538   4   3   3   3
  0.0023758202754217   4   3   4   1
 -0.0136713889834275   4   3   4   2
  0.0052220574889542   4   3   4   3
  0.1683533508597096   4   4   1   1
 -0.0104623396202291   4   4   2   1
  0.4909448450785140   4   4   2   2
 -0.0114798299258421   4   4   3   1
 -0.0249604762719276   4   4   3   2
  0.1510305307530519   4   4   3   3
  0.0375039793583091   4   4   4   1
 -0.2009620599646156   4   4   4   2
  0.0261250001131599   4   4   4   3
  0.4741564162692515   4   4   4   4
  0.0070980232594013   5   1   1   1
  0.0004286679791130   5   1   2   1
  0.0042973995162454   5   1   2   2
 -0.0094396013379734   5   1   3   1
  0.0009846083938836   5   1   3   2
  0.0091186704714437   5   1   3   3
  0.0012574794544703   5   1   4   1
 -0.0014458597770748   5   1   4   2
  0.0012761304535867   5   1   4   3
  0.0035889129411748   5   1   4   4
  0.0030612609533590   5   1   5   1
 -0.0019365464718482   5   2   1   1
 -0.0000389277418155   5   2   2   1
 -0.0073018578584592   5   2   2   2
  0.0009739893913907   5   2   3   1
 -0.0005764186004445   5   2   3   2
 -0.0017135761752855   5   2   3   3
 -0.0009979815976022   5   2   4   1
  0.0093134737363940   5   2   4   2
 -0.0010245689655097   5   2   4   3
 -0.0091753250635146   5   2   4   4
 -0.0007288117657521   5   2   5   1
  0.0023359823136164   5   2   5   2
 -0.0321521755493929   5   3   1   1
  0.0008049342390792   5   3   2   1
 -0.0093876215045691   5   3   2   2
  0.0147833500954553   5   3   3   1
 -0.0024899590870972   5   3   3   2
 -0.0299800506206767   5   3   3   3
  0.0018022735186302   5   3   4   1
  0.0005216434856871   5   3   4   2
 -0.0020711408068287   5   3   4   3
 -0.0074146838660966   5   3   4   4
  0.0014148892702543   5   3   5   1
 -0.0009114561161982   5   3   5   2
  0.0060426438486481   5   3   5   3
  0.0109954457504992   5   4   1   1
 -0.0006949346549798   5   4   2   1
  0.0322822449460670   5   4   2   2
 -0.0008545322374980   5   4   3   1
 -0.0015593242215154   5   4   3   2
  0.0087060792787756   5   4   3   3
  0.0024717167339455   5   4   4   1
 -0.0144900470600369   5   4   4   2
  0.0022242215975098   5   4   4   3
  0.0301717412069262   5   4   4   4
 -0.0008794448989690   5   4   5   1
  0.0010095225720620   5   4   5   2
 -0.0029596837181771   5   4   5   3
  0.0052964832747066   5   4   5   4
  0.1048127239563300   5   5   1   1
 -0.0068705701236119   5   5   2   1
  0.0862675541707903   5   5   2   2
 -0.0068125307243086   5   5   3   1
 -0.0041039050798731   5   5   3   2
  0.0993491586114216   5   5   3   3
 -0.0080851349401337   5   5   4   1
 -0.0054905557013890   5   5   4   2
 -0.0050805008310856   5   5   4   3
  0.0824532630098019   5   5   4   4
  0.0053708965344928   5   5   5   1
 -0.0053597199503819   5   5   5   2
  0.0149264908607886   5   5   5   3
 -0.0129758078592681   5   5   5   4
  0.2351337455979362   5   5   5   5
  0.0023311012898128   6   1   1   1
  0.0011262345166823   6   1   2   1
  0.0066517403484078   6   1   2   2
 -0.0052035492689010   6   1   3   1
  0.0004394164224195   6   1   3   2
  0.0040418219540064   6   1   3   3
  0.0021005170827301   6   1   4   1
 -0.0010904653329504   6   1   4   2
  0.0011029334327097   6   1   4   3
  0.0046961805140985   6   1   4   4
  0.0026024768343914   6   1   5   1
 -0.0000927944851289   6   1   5   2
  0.0012346962578671   6   1   5   3
 -0.0000293903009455   6   1   5   4
  0.0016998511088550   6   1   5   5
  0.0026552572261417   6   1   6   1
  0.0075477738456532   6   2   1   1
  0.0012023736422176   6   2   2   1
  0.0042261551851855   6   2   2   2
 -0.0013422518545066   6   2   3   1
  0.0023042063742114   6   2   3   2
  0.0054718985315110   6   2   3   3
  0.0006722511971832   6   2   4   1
 -0.0071175730244881   6   2   4   2
  0.0013800755209677   6   2   4   3
  0.0061981445824385   6   2   4   4
  0.0002040536015839   6   2   5   1
 -0.0026273313520187   6   2   5   2
 -0.0000060338903126   6   2   5   3
 -0.0010368190807512   6   2   5   4
  0.0016146602285166   6   2   5   5
 -0.0004423059774884   6   2   6   1
  0.0036695520540489   6   2   6   2
 -0.0181808501145656   6   3   1   1
  0.0006422593435624   6   3   2   1
 -0.0001800623458625   6   3   2   2
  0.0091301015602747   6   3   3   1
 -0.0017386994897354   6   3   3   2
 -0.0168421283133255   6   3   3   3
  0.0016623011431261   6   3   4   1
 -0.0006804985732942   6   3   4   2
 -0.0007450509469241   6   3   4   3
 -0.0009821347485917   6   3   4   4
  0.0011669532843348   6   3   5   1
  0.0003592121601576   6   3   5   2
  0.0035964500102571   6   3   5   3
 -0.0001495113380122   6   3   5   4
  0.0070129932000830   6   3   5   5
  0.0016035909573822   6   3   6   1
 -0.0012209374464721   6   3   6   2
  0.0038423826558155   6   3   6   3
 -0.0023399509692824   6   4   1   1
  0.0008370130000239   6   4   2   1
 -0.0248703763659956   6   4   2   2
 -0.0005571834898190   6   4   3   1
  0.0020830736946047   6   4   3   2
 -0.0027197067775427   6   4   3   3
 -0.0021896331151113   6   4   4   1
  0.0119099235573463   6   4   4   2
 -0.0010766089265995   6   4   4   3
 -0.0230892568955709   6   4   4   4
 -0.0004223802837805   6   4   5   1
 -0.0010759509799763   6   4   5   2
  0.0000806260288216   6   4   5   3
 -0.0038824887646705   6   4   5   4
  0.0029631445020783   6   4   5   5
 -0.0011589950873158   6   4   6   1
  0.0019044614065459   6   4   6   2
 -0.0021311321535665   6   4   6   3
  0.0050001690137606   6   4   6   4
  0.0577204211267003   6   5   1   1
  0.0002046103026490   6   5   2   1
 -0.0614596493285715   6   5   2   2
 -0.0064508741740455   6   5   3   1
  0.0129328942031352   6   5   3   2
  0.0497126552210191   6   5   3   3
 -0.0126587223080589   6   5   4   1
  0.0070536802480408   6   5   4   2
 -0.0000431489394646   6   5   4   3
 -0.0527432681368344   6   5   4   4
  0.0003742791651401   6   5   5   1
  0.0013113207952466   6   5   5   2
  0.0040906050899357   6   5   5   3
  0.0018762941768344   6   5   5   4
  0.0221798964875724   6   5   5   5
  0.0020462537222074   6   5   6   1
 -0.0017061774125825   6   5   6   2
  0.0109985118309105   6   5   6   3
 -0.0105351416354455   6   5   6   4
  0.1785256602348310   6   5   6   5
  0.0895015553014672   6   6   1   1
 -0.0073025073671271   6   6   2   1
  0.1141267971912096   6   6   2   2
 -0.0055487558662728   6   6   3   1
 -0.0090194229620200   6   6   3   2
  0.0851238850268313   6   6   3   3
 -0.0037334696580359   6   6   4   1
 -0.0084839156565835   6   6   4   2
 -0.0047094214474844   6   6   4   3
  0.1061893114065524   6   6   4   4
  0.0047595207227869   6   6   5   1
 -0.0055002391227778   6   6   5   2
  0.0116859107617381   6   6   5   3
 -0.0125078375992037   6   6   5   4
  0.2253040458995087   6   6   5   5
  0.0005686208905407   6   6   6   1
  0.0021594434014230   6   6   6   2
  0.0018451536937764   6   6   6   3
  0.0077232601335121   6   6   6   4
 -0.0409934949328503   6   6   6   5
  0.2530092669999243   6   6   6   6
  0.0000000000000000   0   0   0   0
  0.5427122672050971   1   1   1   1
 -0.0075580060157343   1   1   2   1
  0.1854353387008903   1   1   2   2
 -0.1960434944560860   1   1   3   1
  0.0403160468659181   1   1   3   2
  0.4909448450785137   1   1   3   3
 -0.0269004394807781   1   1   4   1
 -0.0159546550252507   1   1   4   2
  0.0277535606021966   1   1   4   3
  0.1683533508597096   1   1   4   4
  0.0070980232594013   1   1   5   1
 -0.0019365464718482   1   1   5   2
 -0.0321521755493929   1   1   5   3
  0.0109954457504992   1   1   5   4
  0.1048127239563300   1   1   5   5
  0.0023311012898128   1   1   6   1
  0.0075477738456532   1   1   6   2
 -0.0181808501145656   1   1   6   3
 -0.0023399509692824   1   1   6   4
  0.0577204211267003   1   1   6   5
  0.0895015553014671   1   1   6   6
 -0.0075580060157344   2   1   1   1
  0.0065435320734987   2   1   2   1
 -0.0075580060157346   2   1   2   2
  0.0115568872360544   2   1   3   1
  0.0031486878886849   2   1   3   2
 -0.0104623396202302   2   1   3   3
  0.0031486878886850   2   1   4   1
  0.0115568872360540   2   1   4   2
 -0.0000422369777660   2   1   4   3
 -0.0104623396202293   2   1   4   4
  0.0004286679791130   2   1   5   1
 -0.0000389277418155   2   1   5   2
  0.0008049342390792   2   1   5   3
 -0.0006949346549798   2   1   5   4
 -0.0068705701236119   2   1   5   5
  0.0011262345166823   2   1   6   1
  0.0012023736422176   2   1   6   2
  0.0006422593435624   2   1   6   3
  0.0008370130000239   2   1   6   4
  0.0002046103026490   2   1   6   5
 -0.0073025073671271   2   1   6   6
  0.1854353387008903   2   2   1   1
 -0.0075580060157344   2   2   2   1
  0.5427122672050964   2   2   2   2
 -0.0159546550252509   2   2   3   1
 -0.0269004394807775   2   2   3   2
  0.1683533508597068   2   2   3   3
  0.0403160468659178   2   2   4   1
 -0.1960434944560851   2   2   4   2
  0.0277535606021951   2   2   4   3
  0.4909448450785136   2   2   4   4
  0.0042973995162454   2   2   5   1
 -0.0073018578584592   2   2   5   2
 -0.0093876215045691   2   2   5   3
  0.0322822449460670   2   2   5   4
  0.0862675541707903   2   2   5   5
  0.0066517403484078   2   2   6   1
  0.0042261551851855   2   2   6   2
 -0.0001800623458625   2   2   6   3
 -0.0248703763659956   2   2   6   4
 -0.0614596493285715   2   2   6   5
  0.1141267971912095   2   2   6   6
 -0.1960434944560862   3   1   1   1
  0.0115568872360544   3   1   2   1
 -0.0159546550252509   3   1   2   2
  0.1557703229594285   3   1   3   1
 -0.0188468695118007   3   1   3   2
 -0.2009620599646126   3   1   3   3
  0.0155577660512899   3   1   4   1
 -0.0003054421017298   3   1   4   2
 -0.0136713889834243   3   1   4   3
 -0.0114798299258421   3   1   4   4
 -0.0094396013379734   3   1   5   1
  0.0009739893913907   3   1   5   2
  0.0147833500954553   3   1   5   3
 -0.0008545322374980   3   1   5   4
 -0.0068125307243086   3   1   5   5
 -0.0052035492689010   3   1   6   1
 -0.0013422518545066   3   1   6   2
  0.0091301015602748   3   1   6   3
 -0.0005571834898191   3   1   6   4
 -0.0064508741740455   3   1   6   5
 -0.0055487558662728   3   1   6   6
  0.0403160468659183   3   2   1   1
  0.0031486878886849   3   2   2   1
 -0.0269004394807774   3   2   2   2
 -0.0188468695118007   3   2   3   1
  0.0100565564343859   3   2   3   2
  0.0375039793583062   3   2   3   3
 -0.0043275770150207   3   2   4   1
  0.0155577660512876   3   2   4   2
  0.0023758202754214   3   2   4   3
 -0.0249604762719275   3   2   4   4
  0.0009846083938836   3   2   5   1
 -0.0005764186004445   3   2   5   2
 -0.0024899590870972   3   2   5   3
 -0.0015593242215154   3   2   5   4
 -0.0041039050798730   3   2   5   5
  0.0004394164224195   3   2   6   1
  0.0023042063742114   3   2   6   2
 -0.0017386994897354   3   2   6   3
  0.0020830736946047   3   2   6   4
  0.0129328942031351   3   2   6   5
 -0.0090194229620199   3   2   6   6
  0.4909448450785137   3   3   1   1
 -0.0104623396202301   3   3   2   1
  0.1683533508597069   3   3   2   2
 -0.2009620599646125   3   3   3   1
  0.0375039793583060   3   3   3   2
  0.4741564162692481   3   3   3   3
 -0.0249604762719320   3   3   4   1
 -0.0114798299258396   3   3   4   2
  0.0261250001131538   3   3   4   3
  0.1510305307530519   3   3   4   4
  0.0091186704714437   3   3   5   1
 -0.0017135761752855   3   3   5   2
 -0.0299800506206767   3   3   5   3
  0.0087060792787756   3   3   5   4
  0.0993491586114217   3   3   5   5
  0.0040418219540064   3   3   6   1
  0.0054718985315110   3   3   6   2
 -0.0168421283133255   3   3   6   3
 -0.0027197067775427   3   3   6   4
  0.0497126552210190   3   3   6   5
  0.0851238850268315   3   3   6   6
 -0.0269004394807776   4   1   1   1
  0.0031486878886850   4   1   2   1
  0.0403160468659180   4   1   2   2
  0.0155577660512897   4   1   3   1
 -0.0043275770150206   4   1   3   2
 -0.0249604762719315   4   1   3   3
  0.0100565564343865   4   1   4   1
 -0.0188468695118026   4   1   4   2
  0.0023758202754217   4   1   4   3
  0.0375039793583093   4   1   4   4
  0.0012574794544703   4   1   5   1
 -0.0009979815976022   4   1   5   2
  0.0018022735186301   4   1   5   3
  0.0024717167339455   4   1   5   4
 -0.0080851349401336   4   1   5   5
  0.0021005170827301   4   1   6   1
  0.0006722511971832   4   1   6   2
  0.0016623011431261   4   1   6   3
 -0.0021896331151113   4   1   6   4
 -0.0126587223080588   4   1   6   5
 -0.0037334696580359   4   1   6   6
 -0.0159546550252504   4   2   1   1
  0.0115568872360539   4   2   2   1
 -0.1960434944560840   4   2   2   2
 -0.0003054421017298   4   2   3   1
  0.0155577660512875   4   2   3   2
 -0.0114798299258393   4   2   3   3
 -0.0188468695118025   4   2   4   1
  0.1557703229594307   4   2   4   2
 -0.0136713889834274   4   2   4   3
 -0.2009620599646144   4   2   4   4
 -0.0014458597770748   4   2   5   1
  0.0093134737363940   4   2   5   2
  0.0005216434856871   4   2   5   3
 -0.0144900470600368   4   2   5   4
 -0.0054905557013888   4   2   5   5
 -0.0010904653329504   4   2   6   1
 -0.0071175730244881   4   2   6   2
 -0.0006804985732942   4   2   6   3
  0.0119099235573462   4   2   6   4
  0.0070536802480407   4   2   6   5
 -0.0084839156565833   4   2   6   6
  0.0277535606021963   4   3   1   1
 -0.0000422369777660   4   3   2   1
  0.0277535606021953   4   3   2   2
 -0.0136713889834240   4   3   3   1
  0.0023758202754213   4   3   3   2
  0.0261250001131535   4   3   3   3
  0.0023758202754217   4   3   4   1
 -0.0136713889834275   4   3   4   2
  0.0052220574889542   4   3   4   3
  0.0261250001131601   4   3   4   4
  0.0012761304535867   4   3   5   1
 -0.0010245689655097   4   3   5   2
 -0.0020711408068287   4   3   5   3
  0.0022242215975098   4   3   5   4
 -0.0050805008310856   4   3   5   5
  0.0011029334327096   4   3   6   1
  0.0013800755209677   4   3   6   2
 -0.0007450509469241   4   3   6   3
 -0.0010766089265995   4   3   6   4
 -0.0000431489394647   4   3   6   5
 -0.0047094214474844   4   3   6   6
  0.1683533508597093   4   4   1   1
 -0.0104623396202291   4   4   2   1
  0.4909448450785130   4   4   2   2
 -0.0114798299258420   4   4   3   1
 -0.0249604762719275   4   4   3   2
  0.1510305307530516   4   4   3   3
  0.0375039793583091   4   4   4   1
 -0.2009620599646149   4   4   4   2
  0.0261250001131599   4   4   4   3
  0.4741564162692505   4   4   4   4
  0.0035889129411748   4   4   5   1
 -0.0091753250635145   4   4   5   2
 -0.0074146838660966   4   4   5   3
  0.0301717412069261   4   4   5   4
  0.0824532630098018   4   4   5   5
  0.0046961805140985   4   4   6   1
  0.0061981445824384   4   4   6   2
 -0.0009821347485917   4   4   6   3
 -0.0230892568955709   4   4   6   4
 -0.0527432681368343   4   4   6   5
  0.1061893114065523   4   4   6   6
  0.0073018578585326   5   1   1   1
  0.0000389277418362   5   1   2   1
  0.0019365464719788   5   1   2   2
 -0.0093134737365174   5   1   3   1
  0.0009979815976139   5   1   3   2
  0.0091753250636227   5   1   3   3
  0.0005764186004840   5   1   4   1
 -0.0009739893914133   5   1   4   2
  0.0010245689655335   5   1   4   3
  0.0017135761753790   5   1   4   4
  0.0026458903884677   5   1   5   1
 -0.0007031208458894   5   1   5   2
  0.0012103756927547   5   1   5   3
 -0.0009562205835356   5   1   5   4
  0.0058844925680022   5   1   5   5
  0.0021701395154774   5   1   6   1
  0.0002257850715697   5   1   6   2
  0.0009609573294518   5   1   6   3
 -0.0002202412047239   5   1   6   4
  0.0011345205158726   5   1   6   5
  0.0051265930316134   5   1   6   6
 -0.0042973995161303   5   2   1   1
 -0.0004286679790935   5   2   2   1
 -0.0070980232593606   5   2   2   2
  0.0014458597770565   5   2   3   1
 -0.0012574794544342   5   2   3   2
 -0.0035889129410945   5   2   3   3
 -0.0009846083938759   5   2   4   1
  0.0094396013378831   5   2   4   2
 -0.0012761304535677   5   2   4   3
 -0.0091186704713729   5   2   4   4
 -0.0007587534335248   5   2   5   1
  0.0026458903883763   5   2   5   2
 -0.0008276326628397   5   2   5   3
  0.0011485260459358   5   2   5   4
 -0.0050792078984433   5   2   5   5
 -0.0000636285598122   5   2   6   1
 -0.0031228963784209   5   2   6   2
  0.0005372259893345   5   2   6   3
 -0.0012918585061429   5   2   6   4
  0.0004405949039193   5   2   6   5
 -0.0046569523916974   5   2   6   6
 -0.0322822449464968   5   3   1   1
  0.0006949346549944   5   3   2   1
 -0.0109954457505393   5   3   2   2
  0.0144900470602413   5   3   3   1
 -0.0024717167339829   5   3   3   2
 -0.0301717412073226   5   3   3   3
  0.0015593242215515   5   3   4   1
  0.0008545322374898   5   3   4   2
 -0.0022242215975279   5   3   4   3
 -0.0087060792788254   5   3   4   4
  0.0011485260459747   5   3   5   1
 -0.0009562205835294   5   3   5   2
  0.0055914293765536   5   3   5   3
 -0.0030451945974985   5   3   5   4
  0.0141430467325330   5   3   5   5
  0.0009689293876870   5   3   6   1
  0.0001337548509688   5   3   6   2
  0.0031439944353896   5   3   6   3
  0.0005202828213456   5   3   6   4
  0.0021206452523358   5   3   6   5
  0.0117373562350896   5   3   6   6
  0.0093876215045663   5   4   1   1
 -0.0008049342390680   5   4   2   1
  0.0321521755490787   5   4   2   2
 -0.0005216434856979   5   4   3   1
 -0.0018022735186013   5   4   3   2
  0.0074146838660776   5   4   3   3
  0.0024899590870675   5   4   4   1
 -0.0147833500952986   5   4   4   2
  0.0020711408068163   5   4   4   3
  0.0299800506203877   5   4   4   4
 -0.0008276326628471   5   4   5   1
  0.0012103756927156   5   4   5   2
 -0.0028214502314079   5   4   5   3
  0.0055914293764254   5   4   5   4
 -0.0131175164741939   5   4   5   5
  0.0001105146856190   5   4   6   1
 -0.0013143842038570   5   4   6   2
  0.0002554912657194   5   4   6   3
 -0.0043074442679975   5   4   6   4
  0.0036735646123754   5   4   6   5
 -0.0127506561851159   5   4   6   6
  0.0862675541729111   5   5   1   1
 -0.0068705701236189   5   5   2   1
  0.1048127239543387   5   5   2   2
 -0.0054905557016323   5   5   3   1
 -0.0080851349396967   5   5   3   2
  0.0824532630116201   5   5   3   3
 -0.0041039050803192   5   5   4   1
 -0.0068125307240865   5   5   4   2
 -0.0050805008310839   5   5   4   3
  0.0993491586097082   5   5   4   4
  0.0050792078984751   5   5   5   1
 -0.0058844925679236   5   5   5   2
  0.0131175164743531   5   5   5   3
 -0.0141430467323222   5   5   5   4
  0.2202964236327166   5   5   5   5
  0.0009631179401093   5   5   6   1
  0.0022803020551927   5   5   6   2
  0.0018720545314902   5   5   6   3
  0.0079921516603064   5   5   6   4
 -0.0295718217619392   5   5   6   5
  0.2390455647127636   5   5   6   6
  0.0042261551850587   6   1   1   1
  0.0012023736422169   6   1   2   1
  0.0075477738456197   6   1   2   2
 -0.0071175730243278   6   1   3   1
  0.0006722511971661   6   1   3   2
  0.0061981445822806   6   1   3   3
  0.0023042063742015   6   1   4   1
 -0.0013422518544896   6   1   4   2
  0.0013800755209502   6   1   4   3
  0.0054718985314808   6   1   4   4
  0.0031228963784289   6   1   5   1
 -0.0002257850715642   6   1   5   2
  0.0013143842038656   6   1   5   3
 -0.0001337548509729   6   1   5   4
  0.0022803020551475   6   1   5   5
  0.0031085256474318   6   1   6   1
 -0.0003858251175754   6   1   6   2
  0.0017079976231873   6   1   6   3
 -0.0011829378538161   6   1   6   4
  0.0016277303376065   6   1   6   5
  0.0012838999322666   6   1   6   6
  0.0066517403484821   6   2   1   1
  0.0011262345166896   6   2   2   1
  0.0023311012899361   6   2   2   2
 -0.0010904653329755   6   2   3   1
  0.0021005170827517   6   2   3   2
  0.0046961805141610   6   2   3   3
  0.0004394164224364   6   2   4   1
 -0.0052035492690637   6   2   4   2