 &FCI NORB=  20,NELEC=  14,MS2=  14,
  ORBSYM=1,1,1,1,1,1,5,5,5,5,5,5,2,2,6,6,3,3,7,7,
  ISYM=   1,
  IGENERAL=1,
  ITGENERAL=1,
 &END
  2.3068656644476713   1   1   1   1
 -0.1914404665989668   1   1   1   3
  0.0835840775029289   1   1   1   5
  2.3068656644476713   1   1   2   2
 -0.1914404665989668   1   1   2   4
  0.0835840775029289   1   1   2   6
 -0.1914404665989668   1   1   3   1
  0.7868840776032341   1   1   3   3
  0.0655012164631513   1   1   3   5
 -0.1914404665989668   1   1   4   2
  0.7868840776032341   1   1   4   4
  0.0655012164631513   1   1   4   6
  0.0835840775029289   1   1   5   1
  0.0655012164631513   1   1   5   3
  0.6854056843137639   1   1   5   5
  0.0835840775029289   1   1   6   2
  0.0655012164631513   1   1   6   4
  0.6854056843137639   1   1   6   6
  2.3063511607353826   1   1   7   7
 -0.1915180728917122   1   1   7   9
 -0.1312665818550148   1   1   7  11
  2.3063511607353826   1   1   8   8
 -0.1915180728917122   1   1   8  10
 -0.1312665818550148   1   1   8  12
 -0.1915180728917122   1   1   9   7
  0.6671458921501510   1   1   9   9
  0.0491703695676926   1   1   9  11
 -0.1915180728917122   1   1  10   8
  0.6671458921501510   1   1  10  10
  0.0491703695676926   1   1  10  12
 -0.1312665818550148   1   1  11   7
  0.0491703695676926   1   1  11   9
  0.8958031735769194   1   1  11  11
 -0.1312665818550148   1   1  12   8
  0.0491703695676926   1   1  12  10
  0.8958031735769194   1   1  12  12
  0.6879790991819594   1   1  13  13
  0.6879790991819594   1   1  14  14
  0.7276833321892696   1   1  15  15
  0.7276833321892696   1   1  16  16
  0.6879790991819594   1   1  17  17
  0.6879790991819594   1   1  18  18
  0.7276833321892696   1   1  19  19
  0.7276833321892696   1   1  20  20
 -0.1914404665989668   1   3   1   1
  0.0309482307898145   1   3   1   3
 -0.0065652065104524   1   3   1   5
 -0.1914404665989668   1   3   2   2
  0.0309482307898145   1   3   2   4
 -0.0065652065104524   1   3   2   6
  0.0309482307898145   1   3   3   1
  0.0020222979850979   1   3   3   3
  0.0072351540891893   1   3   3   5
  0.0309482307898145   1   3   4   2
  0.0020222979850979   1   3   4   4
  0.0072351540891893   1   3   4   6
 -0.0065652065104524   1   3   5   1
  0.0072351540891893   1   3   5   3
 -0.0089761290563943   1   3   5   5
 -0.0065652065104524   1   3   6   2
  0.0072351540891893   1   3   6   4
 -0.0089761290563943   1   3   6   6
 -0.1913035533063312   1   3   7   7
  0.0258190185991085   1   3   7   9
  0.0280121734066512   1   3   7  11
 -0.1913035533063312   1   3   8   8
  0.0258190185991085   1   3   8  10
  0.0280121734066512   1   3   8  12
  0.0258190185991085   1   3   9   7
 -0.0125636523695002   1   3   9   9
  0.0028764193326232   1   3   9  11
  0.0258190185991085   1   3  10   8
 -0.0125636523695002   1   3  10  10
  0.0028764193326232   1   3  10  12
  0.0280121734066512   1   3  11   7
  0.0028764193326232   1   3  11   9
 -0.0055163682878682   1   3  11  11
  0.0280121734066512   1   3  12   8
  0.0028764193326232   1   3  12  10
 -0.0055163682878682   1   3  12  12
 -0.0015138854750741   1   3  13  13
 -0.0015138854750741   1   3  14  14
 -0.0059488162171167   1   3  15  15
 -0.0059488162171167   1   3  16  16
 -0.0015138854750741   1   3  17  17
 -0.0015138854750741   1   3  18  18
 -0.0059488162171167   1   3  19  19
 -0.0059488162171167   1   3  20  20
  0.0835840775029289   1   5   1   1
 -0.0065652065104524   1   5   1   3
  0.0142698628276405   1   5   1   5
  0.0835840775029289   1   5   2   2
 -0.0065652065104524   1   5   2   4
  0.0142698628276405   1   5   2   6
 -0.0065652065104524   1   5   3   1
  0.0254970389618013   1   5   3   3
  0.0123610459110959   1   5   3   5
 -0.0065652065104524   1   5   4   2
  0.0254970389618013   1   5   4   4
  0.0123610459110959   1   5   4   6
  0.0142698628276405   1   5   5   1
  0.0123610459110959   1   5   5   3
 -0.0027000281031184   1   5   5   5
  0.0142698628276405   1   5   6   2
  0.0123610459110959   1   5   6   4
 -0.0027000281031184   1   5   6   6
  0.0836430878921009   1   5   7   7
 -0.0152157617155421   1   5   7   9
  0.0061211971162324   1   5   7  11
  0.0836430878921009   1   5   8   8
 -0.0152157617155421   1   5   8  10
  0.0061211971162324   1   5   8  12
 -0.0152157617155421   1   5   9   7
 -0.0042069788935633   1   5   9   9
  0.0122298230153136   1   5   9  11
 -0.0152157617155421   1   5  10   8
 -0.0042069788935633   1   5  10  10
  0.0122298230153136   1   5  10  12
  0.0061211971162324   1   5  11   7
  0.0122298230153136   1   5  11   9
  0.0228800525233002   1   5  11  11
  0.0061211971162324   1   5  12   8
  0.0122298230153136   1   5  12  10
  0.0228800525233002   1   5  12  12
  0.0089481409782631   1   5  13  13
  0.0089481409782631   1   5  14  14
  0.0053577665102209   1   5  15  15
  0.0053577665102209   1   5  16  16
  0.0089481409782631   1   5  17  17
  0.0089481409782631   1   5  18  18
  0.0053577665102209   1   5  19  19
  0.0053577665102209   1   5  20  20
  1.8249339818173052   1   7   1   7
 -0.1846139501174045   1   7   1   9
 -0.1496126043670994   1   7   1  11
  1.8249339818173052   1   7   2   8
 -0.1846139501174045   1   7   2  10
 -0.1496126043670994   1   7   2  12
 -0.1983666215425374   1   7   3   7
  0.1721198434088871   1   7   3   9
  0.2263328771836803   1   7   3  11
 -0.1983666215425374   1   7   4   8
  0.1721198434088871   1   7   4  10
  0.2263328771836803   1   7   4  12
  0.0685565934536271   1   7   5   7
 -0.2521981419440941   1   7   5   9
  0.1933359536732486   1   7   5  11
  0.0685565934536271   1   7   6   8
 -0.2521981419440941   1   7   6  10
  0.1933359536732486   1   7   6  12
  1.8249339818173052   1   7   7   1
 -0.1983666215425374   1   7   7   3
  0.0685565934536271   1   7   7   5
  1.8249339818173052   1   7   8   2
 -0.1983666215425374   1   7   8   4
  0.0685565934536271   1   7   8   6
 -0.1846139501174045   1   7   9   1
  0.1721198434088871   1   7   9   3
 -0.2521981419440941   1   7   9   5
 -0.1846139501174045   1   7  10   2
  0.1721198434088871   1   7  10   4
 -0.2521981419440941   1   7  10   6
 -0.1496126043670994   1   7  11   1
  0.2263328771836803   1   7  11   3
  0.1933359536732486   1   7  11   5
 -0.1496126043670994   1   7  12   2
  0.2263328771836803   1   7  12   4
  0.1933359536732486   1   7  12   6
  0.2753528636451865   1   7  13  15
  0.2753528636451865   1   7  14  16
  0.2753528636451865   1   7  15  13
  0.2753528636451865   1   7  16  14
  0.2753528636451865   1   7  17  19
  0.2753528636451865   1   7  18  20
  0.2753528636451865   1   7  19  17
  0.2753528636451865   1   7  20  18
 -0.1846139501174045   1   9   1   7
  0.0287155847870022   1   9   1   9
  0.0148212030605173   1   9   1  11
 -0.1846139501174045   1   9   2   8
  0.0287155847870022   1   9   2  10
  0.0148212030605173   1   9   2  12
  0.0260148600619241   1   9   3   7
 -0.0048287136181137   1   9   3   9
 -0.0114483135744581   1   9   3  11
  0.0260148600619241   1   9   4   8
 -0.0048287136181137   1   9   4  10
 -0.0114483135744581   1   9   4  12
 -0.0147837545201333   1   9   5   7
 -0.0023235595653674   1   9   5   9
 -0.0017083006039457   1   9   5  11
 -0.0147837545201333   1   9   6   8
 -0.0023235595653674   1   9   6  10
 -0.0017083006039457   1   9   6  12
 -0.1846139501174045   1   9   7   1
  0.0260148600619241   1   9   7   3
 -0.0147837545201333   1   9   7   5
 -0.1846139501174045   1   9   8   2
  0.0260148600619241   1   9   8   4
 -0.0147837545201333   1   9   8   6
  0.0287155847870022   1   9   9   1
 -0.0048287136181137   1   9   9   3
 -0.0023235595653674   1   9   9   5
  0.0287155847870022   1   9  10   2
 -0.0048287136181137   1   9  10   4
 -0.0023235595653674   1   9  10   6
  0.0148212030605173   1   9  11   1
 -0.0114483135744581   1   9  11   3
 -0.0017083006039457   1   9  11   5
  0.0148212030605173   1   9  12   2
 -0.0114483135744581   1   9  12   4
 -0.0017083006039457   1   9  12   6
 -0.0027461984094338   1   9  13  15
 -0.0027461984094338   1   9  14  16
 -0.0027461984094338   1   9  15  13
 -0.0027461984094338   1   9  16  14
 -0.0027461984094338   1   9  17  19
 -0.0027461984094338   1   9  18  20
 -0.0027461984094338   1   9  19  17
 -0.0027461984094338   1   9  20  18
 -0.1496126043670994   1  11   1   7
  0.0148212030605173   1  11   1   9
  0.0359352673962325   1  11   1  11
 -0.1496126043670994   1  11   2   8
  0.0148212030605173   1  11   2  10
  0.0359352673962325   1  11   2  12
  0.0275389835722713   1  11   3   7
 -0.0081345324412436   1  11   3   9
  0.0059622326222116   1  11   3  11
  0.0275389835722713   1  11   4   8
 -0.0081345324412436   1  11   4  10
  0.0059622326222116   1  11   4  12
  0.0050309140036307   1  11   5   7
  0.0262451133785051   1  11   5   9
 -0.0095429778972953   1  11   5  11
  0.0050309140036307   1  11   6   8
  0.0262451133785051   1  11   6  10
 -0.0095429778972953   1  11   6  12
 -0.1496126043670994   1  11   7   1
  0.0275389835722713   1  11   7   3
  0.0050309140036307   1  11   7   5
 -0.1496126043670994   1  11   8   2
  0.0275389835722713   1  11   8   4
  0.0050309140036307   1  11   8   6
  0.0148212030605173   1  11   9   1
 -0.0081345324412436   1  11   9   3
  0.0262451133785051   1  11   9   5
  0.0148212030605173   1  11  10   2
 -0.0081345324412436   1  11  10   4
  0.0262451133785051   1  11  10   6
  0.0359352673962325   1  11  11   1
  0.0059622326222116   1  11  11   3
 -0.0095429778972953   1  11  11   5
  0.0359352673962325   1  11  12   2
  0.0059622326222116   1  11  12   4
 -0.0095429778972953   1  11  12   6
 -0.0099113090131388   1  11  13  15
 -0.0099113090131388   1  11  14  16
 -0.0099113090131388   1  11  15  13
 -0.0099113090131388   1  11  16  14
 -0.0099113090131388   1  11  17  19
 -0.0099113090131388   1  11  18  20
 -0.0099113090131388   1  11  19  17
 -0.0099113090131388   1  11  20  18
  0.0097709748829747   1  13   1  13
  0.0097709748829747   1  13   2  14
  0.0166207301027432   1  13   3  13
  0.0166207301027432   1  13   4  14
 -0.0048610440316616   1  13   5  13
 -0.0048610440316616   1  13   6  14
  0.0118877268304611   1  13   7  15
  0.0118877268304611   1  13   8  16
  0.0156085856233212   1  13   9  15
  0.0156085856233212   1  13  10  16
  0.0111174726036887   1  13  11  15
  0.0111174726036887   1  13  12  16
  0.0097709748829747   1  13  13   1
  0.0166207301027432   1  13  13   3
 -0.0048610440316616   1  13  13   5
  0.0097709748829747   1  13  14   2
  0.0166207301027432   1  13  14   4
 -0.0048610440316616   1  13  14   6
  0.0118877268304611   1  13  15   7
  0.0156085856233212   1  13  15   9
  0.0111174726036887   1  13  15  11
  0.0118877268304611   1  13  16   8
  0.0156085856233212   1  13  16  10
  0.0111174726036887   1  13  16  12
  0.0138173617685866   1  15   1  15
  0.0138173617685866   1  15   2  16
  0.0134411058431988   1  15   3  15
  0.0134411058431988   1  15   4  16
 -0.0086087414710031   1  15   5  15
 -0.0086087414710031   1  15   6  16
  0.0113100667547958   1  15   7  13
  0.0113100667547958   1  15   8  14
  0.0134691761877417   1  15   9  13
  0.0134691761877417   1  15  10  14
  0.0098885596923784   1  15  11  13
  0.0098885596923784   1  15  12  14
  0.0113100667547958   1  15  13   7
  0.0134691761877417   1  15  13   9
  0.0098885596923784   1  15  13  11
  0.0113100667547958   1  15  14   8
  0.0134691761877417   1  15  14  10
  0.0098885596923784   1  15  14  12
  0.0138173617685866   1  15  15   1
  0.0134411058431988   1  15  15   3
 -0.0086087414710031   1  15  15   5
  0.0138173617685866   1  15  16   2
  0.0134411058431988   1  15  16   4
 -0.0086087414710031   1  15  16   6
  0.0097709748829747   1  17   1  17
  0.0097709748829747   1  17   2  18
  0.0166207301027432   1  17   3  17
  0.0166207301027432   1  17   4  18
 -0.0048610440316616   1  17   5  17
 -0.0048610440316616   1  17   6  18
  0.0118877268304611   1  17   7  19
  0.0118877268304611   1  17   8  20
  0.0156085856233212   1  17   9  19
  0.0156085856233212   1  17  10  20
  0.0111174726036887   1  17  11  19
  0.0111174726036887   1  17  12  20
  0.0097709748829747   1  17  17   1
  0.0166207301027432   1  17  17   3
 -0.0048610440316616   1  17  17   5
  0.0097709748829747   1  17  18   2
  0.0166207301027432   1  17  18   4
 -0.0048610440316616   1  17  18   6
  0.0118877268304611   1  17  19   7
  0.0156085856233212   1  17  19   9
  0.0111174726036887   1  17  19  11
  0.0118877268304611   1  17  20   8
  0.0156085856233212   1  17  20  10
  0.0111174726036887   1  17  20  12
  0.0138173617685866   1  19   1  19
  0.0138173617685866   1  19   2  20
  0.0134411058431988   1  19   3  19
  0.0134411058431988   1  19   4  20
 -0.0086087414710031   1  19   5  19
 -0.0086087414710031   1  19   6  20
  0.0113100667547958   1  19   7  17
  0.0113100667547958   1  19   8  18
  0.0134691761877417   1  19   9  17
  0.0134691761877417   1  19  10  18
  0.0098885596923784   1  19  11  17
  0.0098885596923784   1  19  12  18
  0.0113100667547958   1  19  17   7
  0.0134691761877417   1  19  17   9
  0.0098885596923784   1  19  17  11
  0.0113100667547958   1  19  18   8
  0.0134691761877417   1  19  18  10
  0.0098885596923784   1  19  18  12
  0.0138173617685866   1  19  19   1
  0.0134411058431988   1  19  19   3
 -0.0086087414710031   1  19  19   5
  0.0138173617685866   1  19  20   2
  0.0134411058431988   1  19  20   4
 -0.0086087414710031   1  19  20   6
  2.3068656644476713   2   2   1   1
 -0.1914404665989668   2   2   1   3
  0.0835840775029289   2   2   1   5
  2.3068656644476713   2   2   2   2
 -0.1914404665989668   2   2   2   4
  0.0835840775029289   2   2   2   6
 -0.1914404665989668   2   2   3   1
  0.7868840776032341   2   2   3   3
  0.0655012164631513   2   2   3   5
 -0.1914404665989668   2   2   4   2
  0.7868840776032341   2   2   4   4
  0.0655012164631513   2   2   4   6
  0.0835840775029289   2   2   5   1
  0.0655012164631513   2   2   5   3
  0.6854056843137639   2   2   5   5
  0.0835840775029289   2   2   6   2
  0.0655012164631513   2   2   6   4
  0.6854056843137639   2   2   6   6
  2.3063511607353826   2   2   7   7
 -0.1915180728917122   2   2   7   9
 -0.1312665818550148   2   2   7  11
  2.3063511607353826   2   2   8   8
 -0.1915180728917122   2   2   8  10
 -0.1312665818550148   2   2   8  12
 -0.1915180728917122   2   2   9   7
  0.6671458921501510   2   2   9   9
  0.0491703695676926   2   2   9  11
 -0.1915180728917122   2   2  10   8
  0.6671458921501510   2   2  10  10
  0.0491703695676926   2   2  10  12
 -0.1312665818550148   2   2  11   7
  0.0491703695676926   2   2  11   9
  0.8958031735769194   2   2  11  11
 -0.1312665818550148   2   2  12   8
  0.0491703695676926   2   2  12  10
  0.8958031735769194   2   2  12  12
  0.6879790991819594   2   2  13  13
  0.6879790991819594   2   2  14  14
  0.7276833321892696   2   2  15  15
  0.7276833321892696   2   2  16  16
  0.6879790991819594   2   2  17  17
  0.6879790991819594   2   2  18  18
  0.7276833321892696   2   2  19  19
  0.7276833321892696   2   2  20  20
 -0.1914404665989668   2   4   1   1
  0.0309482307898145   2   4   1   3
 -0.0065652065104524   2   4   1   5
 -0.1914404665989668   2   4   2   2
  0.0309482307898145   2   4   2   4
 -0.0065652065104524   2   4   2   6
  0.0309482307898145   2   4   3   1
  0.0020222979850979   2   4   3   3
  0.0072351540891893   2   4   3   5
  0.0309482307898145   2   4   4   2
  0.0020222979850979   2   4   4   4
  0.0072351540891893   2   4   4   6
 -0.0065652065104524   2   4   5   1
  0.0072351540891893   2   4   5   3
 -0.0089761290563943   2   4   5   5
 -0.0065652065104524   2   4   6   2
  0.0072351540891893   2   4   6   4
 -0.0089761290563943   2   4   6   6
 -0.1913035533063312   2   4   7   7
  0.0258190185991085   2   4   7   9
  0.0280121734066512   2   4   7  11
 -0.1913035533063312   2   4   8   8
  0.0258190185991085   2   4   8  10
  0.0280121734066512   2   4   8  12
  0.0258190185991085   2   4   9   7
 -0.0125636523695002   2   4   9   9
  0.0028764193326232   2   4   9  11
  0.0258190185991085   2   4  10   8
 -0.0125636523695002   2   4  10  10
  0.0028764193326232   2   4  10  12
  0.0280121734066512   2   4  11   7
  0.0028764193326232   2   4  11   9
 -0.0055163682878682   2   4  11  11
  0.0280121734066512   2   4  12   8
  0.0028764193326232   2   4  12  10
 -0.0055163682878682   2   4  12  12
 -0.0015138854750741   2   4  13  13
 -0.0015138854750741   2   4  14  14
 -0.0059488162171167   2   4  15  15
 -0.0059488162171167   2   4  16  16
 -0.0015138854750741   2   4  17  17
 -0.0015138854750741   2   4  18  18
 -0.0059488162171167   2   4  19  19
 -0.0059488162171167   2   4  20  20
  0.0835840775029289   2   6   1   1
 -0.0065652065104524   2   6   1   3
  0.0142698628276405   2   6   1   5
  0.0835840775029289   2   6   2   2
 -0.0065652065104524   2   6   2   4
  0.0142698628276405   2   6   2   6
 -0.0065652065104524   2   6   3   1
  0.0254970389618013   2   6   3   3
  0.0123610459110959   2   6   3   5
 -0.0065652065104524   2   6   4   2
  0.0254970389618013   2   6   4   4
  0.0123610459110959   2   6   4   6
  0.0142698628276405   2   6   5   1
  0.0123610459110959   2   6   5   3
 -0.0027000281031184   2   6   5   5
  0.0142698628276405   2   6   6   2
  0.0123610459110959   2   6   6   4
 -0.0027000281031184   2   6   6   6
  0.0836430878921009   2   6   7   7
 -0.0152157617155421   2   6   7   9
  0.0061211971162324   2   6   7  11
  0.0836430878921009   2   6   8   8
 -0.0152157617155421   2   6   8  10
  0.0061211971162324   2   6   8  12
 -0.0152157617155421   2   6   9   7
 -0.0042069788935633   2   6   9   9
  0.0122298230153136   2   6   9  11
 -0.0152157617155421   2   6  10   8
 -0.0042069788935633   2   6  10  10
  0.0122298230153136   2   6  10  12
  0.0061211971162324   2   6  11   7
  0.0122298230153136   2   6  11   9
  0.0228800525233002   2   6  11  11
  0.0061211971162324   2   6  12   8
  0.0122298230153136   2   6  12  10
  0.0228800525233002   2   6  12  12
  0.0089481409782631   2   6  13  13
  0.0089481409782631   2   6  14  14
  0.0053577665102209   2   6  15  15
  0.0053577665102209   2   6  16  16
  0.0089481409782631   2   6  17  17
  0.0089481409782631   2   6  18  18
  0.0053577665102209   2   6  19  19
  0.0053577665102209   2   6  20  20
  1.8249339818173052   2   8   1   7
 -0.1846139501174045   2   8   1   9
 -0.1496126043670994   2   8   1  11
  1.8249339818173052   2   8   2   8
 -0.1846139501174045   2   8   2  10
 -0.1496126043670994   2   8   2  12
 -0.1983666215425374   2   8   3   7
  0.1721198434088871   2   8   3   9
  0.2263328771836803   2   8   3  11
 -0.1983666215425374   2   8   4   8
  0.1721198434088871   2   8   4  10
  0.2263328771836803   2   8   4  12
  0.0685565934536271   2   8   5   7
 -0.2521981419440941   2   8   5   9
  0.1933359536732486   2   8   5  11
  0.0685565934536271   2   8   6   8
 -0.2521981419440941   2   8   6  10
  0.1933359536732486   2   8   6  12
  1.8249339818173052   2   8   7   1
 -0.1983666215425374   2   8   7   3
  0.0685565934536271   2   8   7   5
  1.8249339818173052   2   8   8   2
 -0.1983666215425374   2   8   8   4
  0.0685565934536271   2   8   8   6
 -0.1846139501174045   2   8   9   1
  0.1721198434088871   2   8   9   3
 -0.2521981419440941   2   8   9   5
 -0.1846139501174045   2   8  10   2
  0.1721198434088871   2   8  10   4
 -0.2521981419440941   2   8  10   6
 -0.1496126043670994   2   8  11   1
  0.2263328771836803   2   8  11   3
  0.1933359536732486   2   8  11   5
 -0.1496126043670994   2   8  12   2
  0.2263328771836803   2   8  12   4
  0.1933359536732486   2   8  12   6
  0.2753528636451865   2   8  13  15
  0.2753528636451865   2   8  14  16
  0.2753528636451865   2   8  15  13
  0.2753528636451865   2   8  16  14
  0.2753528636451865   2   8  17  19
  0.2753528636451865   2   8  18  20
  0.2753528636451865   2   8  19  17
  0.2753528636451865   2   8  20  18
 -0.1846139501174045   2  10   1   7
  0.0287155847870022   2  10   1   9
  0.0148212030605173   2  10   1  11
 -0.1846139501174045   2  10   2   8
  0.0287155847870022   2  10   2  10
  0.0148212030605173   2  10   2  12
  0.0260148600619241   2  10   3   7
 -0.0048287136181137   2  10   3   9
 -0.0114483135744581   2  10   3  11
  0.0260148600619241   2  10   4   8
 -0.0048287136181137   2  10   4  10
 -0.0114483135744581   2  10   4  12
 -0.0147837545201333   2  10   5   7
 -0.0023235595653674   2  10   5   9
 -0.0017083006039457   2  10   5  11
 -0.0147837545201333   2  10   6   8
 -0.0023235595653674   2  10   6  10
 -0.0017083006039457   2  10   6  12
 -0.1846139501174045   2  10   7   1
  0.0260148600619241   2  10   7   3
 -0.0147837545201333   2  10   7   5
 -0.1846139501174045   2  10   8   2
  0.0260148600619241   2  10   8   4
 -0.0147837545201333   2  10   8   6
  0.0287155847870022   2  10   9   1
 -0.0048287136181137   2  10   9   3
 -0.0023235595653674   2  10   9   5
  0.0287155847870022   2  10  10   2
 -0.0048287136181137   2  10  10   4
 -0.0023235595653674   2  10  10   6
  0.0148212030605173   2  10  11   1
 -0.0114483135744581   2  10  11   3
 -0.0017083006039457   2  10  11   5
  0.0148212030605173   2  10  12   2
 -0.0114483135744581   2  10  12   4
 -0.0017083006039457   2  10  12   6
 -0.0027461984094338   2  10  13  15
 -0.0027461984094338   2  10  14  16
 -0.0027461984094338   2  10  15  13
 -0.0027461984094338   2  10  16  14
 -0.0027461984094338   2  10  17  19
 -0.0027461984094338   2  10  18  20
 -0.0027461984094338   2  10  19  17
 -0.0027461984094338   2  10  20  18
 -0.1496126043670994   2  12   1   7
  0.0148212030605173   2  12   1   9
  0.0359352673962325   2  12   1  11
 -0.1496126043670994   2  12   2   8
  0.0148212030605173   2  12   2  10
  0.0359352673962325   2  12   2  12
  0.0275389835722713   2  12   3   7
 -0.0081345324412436   2  12   3   9
  0.0059622326222116   2  12   3  11
  0.0275389835722713   2  12   4   8
 -0.0081345324412436   2  12   4  10
  0.0059622326222116   2  12   4  12
  0.0050309140036307   2  12   5   7
  0.0262451133785051   2  12   5   9
 -0.0095429778972953   2  12   5  11
  0.0050309140036307   2  12   6   8
  0.0262451133785051   2  12   6  10
 -0.0095429778972953   2  12   6  12
 -0.1496126043670994   2  12   7   1
  0.0275389835722713   2  12   7   3
  0.0050309140036307   2  12   7   5
 -0.1496126043670994   2  12   8   2
  0.0275389835722713   2  12   8   4
  0.0050309140036307   2  12   8   6
  0.0148212030605173   2  12   9   1
 -0.0081345324412436   2  12   9   3
  0.0262451133785051   2  12   9   5
  0.0148212030605173   2  12  10   2
 -0.0081345324412436   2  12  10   4
  0.0262451133785051   2  12  10   6
  0.0359352673962325   2  12  11   1
  0.0059622326222116   2  12  11   3
 -0.0095429778972953   2  12  11   5
  0.0359352673962325   2  12  12   2
  0.0059622326222116   2  12  12   4
 -0.0095429778972953   2  12  12   6
 -0.0099113090131388   2  12  13  15
 -0.0099113090131388   2  12  14  16
 -0.0099113090131388   2  12  15  13
 -0.0099113090131388   2  12  16  14
 -0.0099113090131388   2  12  17  19
 -0.0099113090131388   2  12  18  20
 -0.0099113090131388   2  12  19  17
 -0.0099113090131388   2  12  20  18
  0.0097709748829747   2  14   1  13
  0.0097709748829747   2  14   2  14
  0.0166207301027432   2  14   3  13
  0.0166207301027432   2  14   4  14
 -0.0048610440316616   2  14   5  13
 -0.0048610440316616   2  14   6  14
  0.0118877268304611   2  14   7  15
  0.0118877268304611   2  14   8  16
  0.0156085856233212   2  14   9  15
  0.0156085856233212   2  14  10  16
  0.0111174726036887   2  14  11  15
  0.0111174726036887   2  14  12  16
  0.0097709748829747   2  14  13   1
  0.0166207301027432   2  14  13   3
 -0.0048610440316616   2  14  13   5
  0.0097709748829747   2  14  14   2
  0.0166207301027432   2  14  14   4
 -0.0048610440316616   2  14  14   6
  0.0118877268304611   2  14  15   7
  0.0156085856233212   2  14  15   9
  0.0111174726036887   2  14  15  11
  0.0118877268304611   2  14  16   8
  0.0156085856233212   2  14  16  10
  0.0111174726036887   2  14  16  12
  0.0138173617685866   2  16   1  15
  0.0138173617685866   2  16   2  16
  0.0134411058431988   2  16   3  15
  0.0134411058431988   2  16   4  16
 -0.0086087414710031   2  16   5  15
 -0.0086087414710031   2  16   6  16
  0.0113100667547958   2  16   7  13
  0.0113100667547958   2  16   8  14
  0.0134691761877417   2  16   9  13
  0.0134691761877417   2  16  10  14
  0.0098885596923784   2  16  11  13
  0.0098885596923784   2  16  12  14
  0.0113100667547958   2  16  13   7
  0.0134691761877417   2  16  13   9
  0.0098885596923784   2  16  13  11
  0.0113100667547958   2  16  14   8
  0.0134691761877417   2  16  14  10
  0.0098885596923784   2  16  14  12
  0.0138173617685866   2  16  15   1
  0.0134411058431988   2  16  15   3
 -0.0086087414710031   2  16  15   5
  0.0138173617685866   2  16  16   2
  0.0134411058431988   2  16  16   4
 -0.0086087414710031   2  16  16   6
  0.0097709748829747   2  18   1  17
  0.0097709748829747   2  18   2  18
  0.0166207301027432   2  18   3  17
  0.0166207301027432   2  18   4  18
 -0.0048610440316616   2  18   5  17
 -0.0048610440316616   2  18   6  18
  0.0118877268304611   2  18   7  19
  0.0118877268304611   2  18   8  20
  0.0156085856233212   2  18   9  19
  0.0156085856233212   2  18  10  20
  0.0111174726036887   2  18  11  19
  0.0111174726036887   2  18  12  20
  0.0097709748829747   2  18  17   1
  0.0166207301027432   2  18  17   3
 -0.0048610440316616   2  18  17   5
  0.0097709748829747   2  18  18   2
  0.0166207301027432   2  18  18   4
 -0.0048610440316616   2  18  18   6
  0.0118877268304611   2  18  19   7
  0.0156085856233212   2  18  19   9
  0.0111174726036887   2  18  19  11
  0.0118877268304611   2  18  20   8
  0.0156085856233212   2  18  20  10
  0.0111174726036887   2  18  20  12
  0.0138173617685866   2  20   1  19
  0.0138173617685866   2  20   2  20
  0.0134411058431988   2  20   3  19
  0.0134411058431988   2  20   4  20
 -0.0086087414710031   2  20   5  19
 -0.0086087414710031   2  20   6  20
  0.0113100667547958   2  20   7  17
  0.0113100667547958   2  20   8  18
  0.0134691761877417   2  20   9  17
  0.0134691761877417   2  20  10  18
  0.0098885596923784   2  20  11  17
  0.0098885596923784   2  20  12  18
  0.0113100667547958   2  20  17   7
  0.0134691761877417   2  20  17   9
  0.0098885596923784   2  20  17  11
  0.0113100667547958   2  20  18   8
  0.0134691761877417   2  20  18  10
  0.0098885596923784   2  20  18  12
  0.0138173617685866   2  20  19   1
  0.0134411058431988   2  20  19   3
 -0.0086087414710031   2  20  19   5
  0.0138173617685866   2  20  20   2
  0.0134411058431988   2  20  20   4
 -0.0086087414710031   2  20  20   6
 -0.1914404665989668   3   1   1   1
  0.0309482307898145   3   1   1   3
 -0.0065652065104524   3   1   1   5
 -0.1914404665989668   3   1   2   2
  0.0309482307898145   3   1   2   4
 -0.0065652065104524   3   1   2   6
  0.0309482307898145   3   1   3   1
  0.0020222979850979   3   1   3   3
  0.0072351540891893   3   1   3   5
  0.0309482307898145   3   1   4   2
  0.0020222979850979   3   1   4   4
  0.0072351540891893   3   1   4   6
 -0.0065652065104524   3   1   5   1
  0.0072351540891893   3   1   5   3
 -0.0089761290563943   3   1   5   5
 -0.0065652065104524   3   1   6   2
  0.0072351540891893   3   1   6   4
 -0.0089761290563943   3   1   6   6
 -0.1913035533063312   3   1   7   7
  0.0258190185991085   3   1   7   9
  0.0280121734066512   3   1   7  11
 -0.1913035533063312   3   1   8   8
  0.0258190185991085   3   1   8  10
  0.0280121734066512   3   1   8  12
  0.0258190185991085   3   1   9   7
 -0.0125636523695002   3   1   9   9
  0.0028764193326232   3   1   9  11
  0.0258190185991085   3   1  10   8
 -0.0125636523695002   3   1  10  10
  0.0028764193326232   3   1  10  12
  0.0280121734066512   3   1  11   7
  0.0028764193326232   3   1  11   9
 -0.0055163682878682   3   1  11  11
  0.0280121734066512   3   1  12   8
  0.0028764193326232   3   1  12  10
 -0.0055163682878682   3   1  12  12
 -0.0015138854750741   3   1  13  13
 -0.0015138854750741   3   1  14  14
 -0.0059488162171167   3   1  15  15
 -0.0059488162171167   3   1  16  16
 -0.0015138854750741   3   1  17  17
 -0.0015138854750741   3   1  18  18
 -0.0059488162171167   3   1  19  19
 -0.0059488162171167   3   1  20  20
  0.7868840776032341   3   3   1   1
  0.0020222979850979   3   3   1   3
  0.0254970389618013   3   3   1   5
  0.7868840776032341   3   3   2   2
  0.0020222979850979   3   3   2   4
  0.0254970389618013   3   3   2   6
  0.0020222979850979   3   3   3   1
  0.7472181500304196   3   3   3   3
  0.1088646551953097   3   3   3   5
  0.0020222979850979   3   3   4   2
  0.7472181500304196   3   3   4   4
  0.1088646551953097   3   3   4   6
  0.0254970389618013   3   3   5   1
  0.1088646551953097   3   3   5   3
  0.5424367785711167   3   3   5   5
  0.0254970389618013   3   3   6   2
  0.1088646551953097   3   3   6   4
  0.5424367785711167   3   3   6   6
  0.7869699869626602   3   3   7   7
 -0.0182719141873296   3   3   7   9
  0.0221338765998186   3   3   7  11
  0.7869699869626602   3   3   8   8
 -0.0182719141873296   3   3   8  10
  0.0221338765998186   3   3   8  12
 -0.0182719141873296   3   3   9   7
  0.5119501394611032   3   3   9   9
  0.0735318763980528   3   3   9  11
 -0.0182719141873296   3   3  10   8
  0.5119501394611032   3   3  10  10
  0.0735318763980528   3   3  10  12
  0.0221338765998186   3   3  11   7
  0.0735318763980528   3   3  11   9
  0.7241338005118849   3   3  11  11
  0.0221338765998186   3   3  12   8
  0.0735318763980528   3   3  12  10
  0.7241338005118849   3   3  12  12
  0.6171757554629016   3   3  13  13
  0.6171757554629016   3   3  14  14
  0.5960361351608698   3   3  15  15
  0.5960361351608698   3   3  16  16
  0.6171757554629016   3   3  17  17
  0.6171757554629016   3   3  18  18
  0.5960361351608698   3   3  19  19