 &FCI NORB=  26,NELEC=   8,MS2=   0,
  ORBSYM=1,5,3,2,1,6,7,5,1,3,2,1,6,7,5,1,4,5,3,2,8,5,1,6,7,5,
  ISYM=   1,
 &END
  0.6488122627215502   1   1   1   1
  0.0619989132690748   2   1   2   1
  0.4395291422238108   2   2   1   1
  0.4457840889015183   2   2   2   2
  0.0891045624119459   3   1   3   1
  0.0352417196519256   3   2   3   2
  0.5275335084473785   3   3   1   1
  0.4154419710074944   3   3   2   2
  0.4889354920765355   3   3   3   3
  0.0891045624119459   4   1   4   1
  0.0352417196519257   4   2   4   2
  0.0200629453355371   4   3   4   3
  0.5275335084473787   4   4   1   1
  0.4154419710074945   4   4   2   2
  0.4488096014054616   4   4   3   3
  0.4889354920765357   4   4   4   4
  0.1215599774606311   5   1   1   1
  0.0049875698440463   5   1   2   2
  0.0615136365771225   5   1   3   3
  0.0615136365771226   5   1   4   4
  0.0666656140292328   5   1   5   1
 -0.0831799539295413   5   2   2   1
  0.1479360519298931   5   2   5   2
 -0.0007835721436127   5   3   3   1
  0.0172933539256522   5   3   5   3
 -0.0007835721436127   5   4   4   1
  0.0172933539256522   5   4   5   4
  0.4706766324427098   5   5   1   1
  0.4371222093763710   5   5   2   2
  0.4172274566211474   5   5   3   3
  0.4172274566211475   5   5   4   4
  0.0323686577543498   5   5   5   1
  0.4495567526484929   5   5   5   5
  0.0298773942410263   6   1   4   2
  0.0273466189878455   6   1   6   1
  0.0564316583935170   6   2   4   1
 -0.0204169129546464   6   2   5   4
  0.0597449073790462   6   2   6   2
  0.0106999596628702   6   3   6   3
  0.0747342387705704   6   4   2   1
 -0.0956110304448273   6   4   5   2
  0.1045132243007485   6   4   6   4
 -0.0247585813549678   6   5   4   2
 -0.0176287586201764   6   5   6   1
  0.0261325623702841   6   5   6   5
  0.4264636603691956   6   6   1   1
  0.3911163547570780   6   6   2   2
  0.3853668644287002   6   6   3   3
  0.4143049481724763   6   6   4   4
  0.0213928598755992   6   6   5   1
  0.3836859523779079   6   6   5   5
  0.3827085881510560   6   6   6   6
  0.0298773942410262   7   1   3   2
  0.0273466189878454   7   1   7   1
  0.0564316583935169   7   2   3   1
 -0.0204169129546464   7   2   5   3
  0.0597449073790461   7   2   7   2
  0.0747342387705703   7   3   2   1
 -0.0956110304448272   7   3   5   2
  0.0831133049750079   7   3   6   4
  0.1045132243007482   7   3   7   3
  0.0106999596628702   7   4   6   3
  0.0106999596628702   7   4   7   4
 -0.0247585813549678   7   5   3   2
 -0.0176287586201764   7   5   7   1
  0.0261325623702841   7   5   7   5
  0.0144690418718880   7   6   4   3
  0.0147763790355964   7   6   7   6
  0.4264636603691950   7   7   1   1
  0.3911163547570774   7   7   2   2
  0.4143049481724757   7   7   3   3
  0.3853668644286998   7   7   4   4
  0.0213928598755992   7   7   5   1
  0.3836859523779074   7   7   5   5
  0.3531558300798628   7   7   6   6
  0.3827085881510554   7   7   7   7
  0.0261077114438526   8   1   2   1
 -0.0238202049147996   8   1   5   2
  0.0322968496408119   8   1   6   4
  0.0322968496408119   8   1   7   3
  0.0154875663722874   8   1   8   1
  0.0820675250682098   8   2   1   1
  0.0536475092931462   8   2   2   2
  0.0692493407032669   8   2   3   3
  0.0692493407032669   8   2   4   4
  0.0148667902885769   8   2   5   1
  0.0483830682030406   8   2   5   5
  0.0493593380609413   8   2   6   6
  0.0493593380609411   8   2   7   7
  0.0296233169530843   8   2   8   2
  0.0147402202119416   8   3   3   2
  0.0138226610454925   8   3   7   1
 -0.0058325324555709   8   3   7   5
  0.0089284585310676   8   3   8   3
  0.0147402202119417   8   4   4   2
  0.0138226610454926   8   4   6   1
 -0.0058325324555709   8   4   6   5
  0.0089284585310676   8   4   8   4
  0.0063984072971087   8   5   2   1
 -0.0179450691396338   8   5   5   2
  0.0082219245670167   8   5   6   4
  0.0082219245670167   8   5   7   3
 -0.0037892633963589   8   5   8   1
  0.0249218711322710   8   5   8   5
  0.0214019334195294   8   6   4   1
 -0.0008563366983370   8   6   5   4
  0.0130185417508599   8   6   6   2
  0.0119207152000608   8   6   8   6
  0.0214019334195293   8   7   3   1
 -0.0008563366983370   8   7   5   3
  0.0130185417508598   8   7   7   2
  0.0119207152000608   8   7   8   7
  0.2872321673862742   8   8   1   1
  0.2965089455477830   8   8   2   2
  0.2762900263921733   8   8   3   3
  0.2762900263921733   8   8   4   4
 -0.0001966590728665   8   8   5   1
  0.3005629325201576   8   8   5   5
  0.2731102517244670   8   8   6   6
  0.2731102517244668   8   8   7   7
 -0.0009800422242415   8   8   8   2
  0.2871053061462515   8   8   8   8
 -0.0640060553585261   9   1   1   1
 -0.0098080716272267   9   1   2   2
 -0.0233748432371471   9   1   3   3
 -0.0233748432371471   9   1   4   4
 -0.0366117843145381   9   1   5   1
 -0.0318574110085598   9   1   5   5
 -0.0106325667132324   9   1   6   6
 -0.0106325667132324   9   1   7   7
 -0.0024846635660747   9   1   8   2
 -0.0099230149711627   9   1   8   8
  0.0315625250920201   9   1   9   1
  0.0135299610474545   9   2   2   1
 -0.0127269339534378   9   2   5   2
  0.0161389964591626   9   2   6   4
  0.0161389964591626   9   2   7   3
  0.0104200726154022   9   2   8   1
 -0.0163944457834324   9   2   8   5
  0.0173388751151577   9   2   9   2
  0.0193861546743527   9   3   3   1
 -0.0071888384667910   9   3   5   3
  0.0177351102339467   9   3   7   2
  0.0075709269817497   9   3   8   7
  0.0147591433726498   9   3   9   3
  0.0193861546743527   9   4   4   1
 -0.0071888384667910   9   4   5   4
  0.0177351102339467   9   4   6   2
  0.0075709269817497   9   4   8   6
  0.0147591433726498   9   4   9   4
 -0.1253155898335494   9   5   1   1
 -0.0620480754548801   9   5   2   2
 -0.0867845542788050   9   5   3   3
 -0.0867845542788050   9   5   4   4
 -0.0389921154646392   9   5   5   1
 -0.0714860661170198   9   5   5   5
 -0.0566835569282087   9   5   6   6
 -0.0566835569282085   9   5   7   7
 -0.0347763438444885   9   5   8   2
 -0.0007211298277451   9   5   8   8
  0.0211185386979359   9   5   9   1
  0.0541675419045457   9   5   9   5
  0.0063428008640354   9   6   4   2
  0.0047469247661038   9   6   6   1
 -0.0021395437238145   9   6   6   5
  0.0052972270223036   9   6   8   4
  0.0070784199787769   9   6   9   6
  0.0063428008640354   9   7   3   2
  0.0047469247661038   9   7   7   1
 -0.0021395437238145   9   7   7   5
  0.0052972270223036   9   7   8   3
  0.0070784199787769   9   7   9   7
  0.0416576283389522   9   8   2   1
 -0.0803482943314706   9   8   5   2
  0.0505734296392546   9   8   6   4
  0.0505734296392546   9   8   7   3
  0.0052933767838927   9   8   8   1
  0.0362912095201271   9   8   8   5
 -0.0117859549418126   9   8   9   2
  0.0819684713426726   9   8   9   8
  0.3950501967454711   9   9   1   1
  0.3418771175483000   9   9   2   2
  0.3542196047285915   9   9   3   3
  0.3542196047285917   9   9   4   4
  0.0350904283579845   9   9   5   1
  0.3544848622478908   9   9   5   5
  0.3216335084364360   9   9   6   6
  0.3216335084364358   9   9   7   7
  0.0270681805741333   9   9   8   2
  0.2782288922637706   9   9   8   8
 -0.0229042222748708   9   9   9   1
 -0.0436358747251517   9   9   9   5
  0.3172069023238906   9   9   9   9
  0.0339016020082574  10   1   3   1
  0.0070031531675390  10   1   5   3
  0.0142385861921813  10   1   7   2
  0.0100661644614316  10   1   8   7
 -0.0010260194416693  10   1   9   3
  0.0243031261856059  10   1  10   1
  0.0070529564259523  10   2   3   2
  0.0065875628202861  10   2   7   1
  0.0004694386234424  10   2   7   5
  0.0062812068004891  10   2   8   3
  0.0041219556791937  10   2   9   7
  0.0098988398875877  10   2  10   2
  0.1314717549206720  10   3   1   1
  0.0742514370247365  10   3   2   2
  0.0972311819921045  10   3   3   3
  0.0902485353895740  10   3   4   4
  0.0354199666140377  10   3   5   1
  0.0818198523082379  10   3   5   5
  0.0631037337381320  10   3   6   6
  0.0647488188233044  10   3   7   7
  0.0284147588581732  10   3   8   2
  0.0262967567289836  10   3   8   8
 -0.0236083374236436  10   3   9   1
 -0.0424733167253198  10   3   9   5
  0.0504081916069280  10   3   9   9
  0.0635972861723383  10   3  10   3
  0.0034913233012653  10   4   4   3
  0.0008225425425863  10   4   7   6
  0.0068024933224025  10   4  10   4
  0.0199442807414330  10   5   3   1
  0.0023237855853263  10   5   5   3
  0.0114483300375655  10   5   7   2
 -0.0004756867301110  10   5   8   7
  0.0007521241824122  10   5   9   3
  0.0055969356456703  10   5  10   1
  0.0112622245073125  10   5  10   5
  0.0009719092715970  10   6   6   3
  0.0009719092715970  10   6   7   4
  0.0052003772246630  10   6  10   6
  0.0153402712401198  10   7   2   1
 -0.0063650921900050  10   7   5   2
  0.0153056441947933  10   7   6   4
  0.0172494627379871  10   7   7   3
  0.0136931631604442  10   7   8   1
 -0.0111408079228628  10   7   8   5
  0.0127437887779616  10   7   9   2
 -0.0114924377939154  10   7   9   8
  0.0329252375827151  10   7  10   7
  0.0112551412122557  10   8   3   2
  0.0099307035537004  10   8   7   1
 -0.0085406982965436  10   8   7   5
  0.0033057201715973  10   8   8   3
 -0.0018349535665456  10   8   9   7
  0.0021547008066995  10   8  10   2
  0.0071393220741571  10   8  10   8
 -0.0173222135898551  10   9   3   1
 -0.0052747127100021  10   9   5   3
 -0.0036699766042146  10   9   7   2
 -0.0057806174218089  10   9   8   7
 -0.0063939863495453  10   9   9   3
 -0.0037895051476898  10   9  10   1
 -0.0056971795750592  10   9  10   5
  0.0132737105680344  10   9  10   9
  0.4204936213854749  10  10   1   1
  0.3478040998252520  10  10   2   2
  0.3959264479099325  10  10   3   3
  0.3695089214425403  10  10   4   4
  0.0407310516525302  10  10   5   1
  0.3499650212937068  10  10   5   5
  0.3281173678327772  10  10   6   6
  0.3505248302667329  10  10   7   7
  0.0465166878499438  10  10   8   2
  0.2509969478339912  10  10   8   8
 -0.0167570612458595  10  10   9   1
 -0.0604223316563772  10  10   9   5
  0.3098187283473461  10  10   9   9
  0.0582972942646290  10  10  10   3
  0.3493377927399988  10  10  10  10
  0.0339016020082574  11   1   4   1
  0.0070031531675389  11   1   5   4
  0.0142385861921813  11   1   6   2
  0.0100661644614317  11   1   8   6
 -0.0010260194416694  11   1   9   4
  0.0243031261856059  11   1  11   1
  0.0070529564259523  11   2   4   2
  0.0065875628202861  11   2   6   1
  0.0004694386234423  11   2   6   5
  0.0062812068004891  11   2   8   4
  0.0041219556791937  11   2   9   6
  0.0098988398875877  11   2  11   2
  0.0034913233012653  11   3   4   3
  0.0008225425425863  11   3   7   6
  0.0068024933224025  11   3  10   4
  0.0068024933224025  11   3  11   3
  0.1314717549206719  11   4   1   1
  0.0742514370247365  11   4   2   2
  0.0902485353895739  11   4   3   3
  0.0972311819921045  11   4   4   4
  0.0354199666140377  11   4   5   1
  0.0818198523082379  11   4   5   5
  0.0647488188233047  11   4   6   6
  0.0631037337381318  11   4   7   7
  0.0284147588581732  11   4   8   2
  0.0262967567289829  11   4   8   8
 -0.0236083374236436  11   4   9   1
 -0.0424733167253198  11   4   9   5
  0.0504081916069280  11   4   9   9
  0.0499922995275333  11   4  10   3
  0.0597641501630189  11   4  10  10
  0.0635972861723383  11   4  11   4
  0.0199442807414329  11   5   4   1
  0.0023237855853263  11   5   5   4
  0.0114483300375654  11   5   6   2
 -0.0004756867301110  11   5   8   6
  0.0007521241824122  11   5   9   4
  0.0055969356456703  11   5  11   1
  0.0112622245073125  11   5  11   5
  0.0153402712401200  11   6   2   1
 -0.0063650921900053  11   6   5   2
  0.0172494627379874  11   6   6   4
  0.0153056441947934  11   6   7   3
  0.0136931631604443  11   6   8   1
 -0.0111408079228626  11   6   8   5
  0.0127437887779616  11   6   9   2
 -0.0114924377939151  11   6   9   8
  0.0225244831333892  11   6  10   7
  0.0329252375827151  11   6  11   6
  0.0009719092715970  11   7   6   3
  0.0009719092715970  11   7   7   4
  0.0052003772246630  11   7  10   6
  0.0052003772246630  11   7  11   7
  0.0112551412122557  11   8   4   2
  0.0099307035537004  11   8   6   1
 -0.0085406982965436  11   8   6   5
  0.0033057201715972  11   8   8   4
 -0.0018349535665456  11   8   9   6
  0.0021547008066995  11   8  11   2
  0.0071393220741569  11   8  11   8
 -0.0173222135898551  11   9   4   1
 -0.0052747127100021  11   9   5   4
 -0.0036699766042146  11   9   6   2
 -0.0057806174218089  11   9   8   6
 -0.0063939863495453  11   9   9   4
 -0.0037895051476898  11   9  11   1
 -0.0056971795750592  11   9  11   5
  0.0132737105680344  11   9  11   9
  0.0132087632336961  11  10   4   3
  0.0112037312169780  11  10   7   6
 -0.0007334279491949  11  10  10   4
 -0.0007334279491949  11  10  11   3
  0.0139077643691749  11  10  11  10
  0.4204936213854749  11  11   1   1
  0.3478040998252520  11  11   2   2
  0.3695089214425402  11  11   3   3
  0.3959264479099325  11  11   4   4
  0.0407310516525301  11  11   5   1
  0.3499650212937067  11  11   5   5
  0.3505248302667331  11  11   6   6
  0.3281173678327768  11  11   7   7
  0.0465166878499438  11  11   8   2
  0.2509969478339895  11  11   8   8
 -0.0167570612458594  11  11   9   1
 -0.0604223316563773  11  11   9   5
  0.3098187283473461  11  11   9   9
  0.0597641501630189  11  11  10   3
  0.3215222640016492  11  11  10  10
  0.0582972942646290  11  11  11   4
  0.3493377927399989  11  11  11  11
  0.0714908884497222  12   1   1   1
  0.0505940952584483  12   1   2   2
  0.0465665987343393  12   1   3   3
  0.0465665987343393  12   1   4   4
  0.0173348699242288  12   1   5   1
  0.0573068289206019  12   1   5   5
  0.0362651505402300  12   1   6   6
  0.0362651505402299  12   1   7   7
  0.0159502134128987  12   1   8   2
  0.0169613517458995  12   1   8   8
 -0.0184580012506862  12   1   9   1
 -0.0272716495043310  12   1   9   5
  0.0292650518210378  12   1   9   9
  0.0338713179644263  12   1  10   3
  0.0306763702819470  12   1  10  10
  0.0338713179644263  12   1  11   4
  0.0306763702819470  12   1  11  11
  0.0262106448674928  12   1  12   1
  0.0415861533245050  12   2   2   1
 -0.0648033633259470  12   2   5   2
  0.0440291908309891  12   2   6   4
  0.0440291908309890  12   2   7   3
  0.0187217994921600  12   2   8   1
 -0.0088396478617288  12   2   8   5
  0.0202040332888821  12   2   9   2
  0.0151127249770887  12   2   9   8
  0.0247628842856613  12   2  10   7
  0.0247628842856614  12   2  11   6
  0.0522368526014067  12   2  12   2
 -0.0082674473925331  12   3   3   1
  0.0001976294900745  12   3   5   3
 -0.0041430824564626  12   3   7   2
  0.0022842536389505  12   3   8   7
 -0.0089939293118648  12   3   9   3
  0.0094771603068371  12   3  10   1
 -0.0078129878352786  12   3  10   5
  0.0091007212885397  12   3  10   9
  0.0202951483392196  12   3  12   3
 -0.0082674473925331  12   4   4   1
  0.0001976294900745  12   4   5   4
 -0.0041430824564626  12   4   6   2
  0.0022842536389505  12   4   8   6
 -0.0089939293118648  12   4   9   4
  0.0094771603068371  12   4  11   1
 -0.0078129878352786  12   4  11   5
  0.0091007212885397  12   4  11   9
  0.0202951483392195  12   4  12   4
 -0.0340733981682992  12   5   1   1
 -0.0685881522863061  12   5   2   2
 -0.0397912743412578  12   5   3   3
 -0.0397912743412578  12   5   4   4
  0.0146941657487613  12   5   5   1
 -0.0602327055430426  12   5   5   5
 -0.0391461298705358  12   5   6   6
 -0.0391461298705357  12   5   7   7
 -0.0189496506448157  12   5   8   2
 -0.0144317664786707  12   5   8   8
 -0.0061370506010508  12   5   9   1
  0.0195044106896299  12   5   9   5
 -0.0229335489385228  12   5   9   9
 -0.0202271125077253  12   5  10   3
 -0.0254063723797521  12   5  10  10
 -0.0202271125077253  12   5  11   4
 -0.0254063723797521  12   5  11  11
 -0.0175325817783224  12   5  12   1
  0.0384833143653531  12   5  12   5
  0.0040537374620144  12   6   4   2
  0.0026507828415672  12   6   6   1
  0.0003552295441943  12   6   6   5
  0.0041594437047523  12   6   8   4
  0.0033939069527557  12   6   9   6
  0.0105417816891189  12   6  11   2
  0.0011855850935991  12   6  11   8
  0.0140801345107136  12   6  12   6
  0.0040537374620143  12   7   3   2
  0.0026507828415672  12   7   7   1
  0.0003552295441944  12   7   7   5
  0.0041594437047523  12   7   8   3
  0.0033939069527557  12   7   9   7
  0.0105417816891189  12   7  10   2
  0.0011855850935991  12   7  10   8
  0.0140801345107136  12   7  12   7
  0.0317979600184390  12   8   2   1
 -0.0540503467715400  12   8   5   2
  0.0371137555517259  12   8   6   4
  0.0371137555517259  12   8   7   3
  0.0087222665823847  12   8   8   1
  0.0149683630076345  12   8   8   5
 -0.0004391116122423  12   8   9   2
  0.0418083880086447  12   8   9   8
  0.0035226634238757  12   8  10   7
  0.0035226634238758  12   8  11   6
  0.0220316959361066  12   8  12   2
  0.0271934414768958  12   8  12   8
 -0.0360727638286730  12   9   1   1
  0.0166772092097329  12   9   2   2
 -0.0235749114741125  12   9   3   3
 -0.0235749114741125  12   9   4   4
 -0.0237577824141793  12   9   5   1
  0.0129106082140790  12   9   5   5
 -0.0030968081610814  12   9   6   6
 -0.0030968081610814  12   9   7   7
 -0.0078211878411448  12   9   8   2
  0.0194753451085983  12   9   8   8
  0.0013566611437909  12   9   9   1
  0.0107375321095431  12   9   9   5
 -0.0041734963802138  12   9   9   9
  0.0029795975233818  12   9  10   3
 -0.0185360423903959  12   9  10  10
  0.0029795975233818  12   9  11   4
 -0.0185360423903959  12   9  11  11
  0.0089860498111567  12   9  12   1
 -0.0157877577776455  12   9  12   5
  0.0303039164245017  12   9  12   9
  0.0464538668360267  12  10   3   1
 -0.0113178892793145  12  10   5   3
  0.0415459852144906  12  10   7   2
  0.0086520237433049  12  10   8   7
  0.0178886317416932  12  10   9   3
  0.0070048847222535  12  10  10   1
  0.0129627231009518  12  10  10   5
 -0.0120318022915894  12  10  10   9
 -0.0143280454437616  12  10  12   3
  0.0431754725829709  12  10  12  10
  0.0464538668360268  12  11   4   1
 -0.0113178892793145  12  11   5   4
  0.0415459852144906  12  11   6   2
  0.0086520237433049  12  11   8   6
  0.0178886317416933  12  11   9   4
  0.0070048847222535  12  11  11   1
  0.0129627231009517  12  11  11   5
 -0.0120318022915894  12  11  11   9
 -0.0143280454437616  12  11  12   4
  0.0431754725829710  12  11  12  11
  0.4097184343074162  12  12   1   1
  0.3838373373299174  12  12   2   2
  0.3857339776352371  12  12   3   3
  0.3857339776352372  12  12   4   4
  0.0179734728821381  12  12   5   1
  0.3798346358837839  12  12   5   5
  0.3528319968254100  12  12   6   6
  0.3528319968254097  12  12   7   7
  0.0479473767675839  12  12   8   2
  0.2668695060446016  12  12   8   8
 -0.0059607439039859  12  12   9   1
 -0.0582689070662315  12  12   9   5
  0.3205286997426079  12  12   9   9
  0.0545446687358140  12  12  10   3
  0.3344168663507087  12  12  10  10
  0.0545446687358141  12  12  11   4
  0.3344168663507088  12  12  11  11
  0.0326515860100400  12  12  12   1
 -0.0474726432919749  12  12  12   5
 -0.0044833856520912  12  12  12   9
  0.3576271277201962  12  12  12  12
 -0.0189797792392806  13   1   4   2
 -0.0186992824040140  13   1   6   1
  0.0063184731957152  13   1   6   5
 -0.0113158854015377  13   1   8   4
 -0.0037187856110673  13   1   9   6
 -0.0106290577387606  13   1  11   2
 -0.0070496257157322  13   1  11   8
 -0.0090219843286732  13   1  12   6
  0.0183868438485388  13   1  13   1
 -0.0253125150031699  13   2   4   1
  0.0053552303898797  13   2   5   4
 -0.0212049549051698  13   2   6   2
 -0.0129062482778068  13   2   8   6
 -0.0065317821408903  13   2   9   4
 -0.0156643848890675  13   2  11   1
  0.0028932099585383  13   2  11   5
  0.0003465938528624  13   2  11   9
 -0.0112755711685814  13   2  12   4
 -0.0092320334118106  13   2  12  11
  0.0215929078425220  13   2  13   2
 -0.0054009255746041  13   3   6   3
 -0.0054009255746041  13   3   7   4
 -0.0049770976686624  13   3  10   6
 -0.0049770976686624  13   3  11   7
  0.0066969837003130  13   3  13   3
 -0.0473563530795999  13   4   2   1
  0.0501032529768236  13   4   5   2
 -0.0620231380328938  13   4   6   4
 -0.0512212868836856  13   4   7   3
 -0.0263339132076536  13   4   8   1
  0.0054172226920668  13   4   8   5
 -0.0180480670948393  13   4   9   2
 -0.0138073178380477  13   4   9   8
 -0.0267473919105417  13   4  10   7
 -0.0367015872478667  13   4  11   6
 -0.0423700448768878  13   4  12   2
 -0.0207731304888386  13   4  12   8
  0.0602705900765005  13   4  13   4
  0.0054129642745162  13   5   4   2
  0.0018951928956702  13   5   6   1
 -0.0043601061583577  13   5   6   5
  0.0035529994406900  13   5   8   4
  0.0060938379199014  13   5   9   6
  0.0065634465339081  13   5  11   2
 -0.0008656347583877  13   5  11   8
  0.0092591025393870  13   5  12   6
 -0.0036880886342153  13   5  13   1
  0.0103760642107796  13   5  13   5
 -0.1344758099743391  13   6   1   1
 -0.0951580970350105  13   6   2   2
 -0.1026519047557649  13   6   3   3
 -0.1127907424690270  13   6   4   4
 -0.0244100019237408  13   6   5   1
 -0.0941165642341944  13   6   5   5
 -0.0812774508142618  13   6   6   6
 -0.0765060850784254  13   6   7   7
 -0.0359081795099910  13   6   8   2
 -0.0278388168444102  13   6   8   8
  0.0141250740676784  13   6   9   1
  0.0461123194261628  13   6   9   5
 -0.0568246184444158  13   6   9   9
 -0.0501757432161813  13   6  10   3
 -0.0693408697645246  13   6  10  10
 -0.0621966691191347  13   6  11   4
 -0.0701302867828414  13   6  11  11
 -0.0336566812024491  13   6  12   1
  0.0307936531509892  13   6  12   5
 -0.0017918260390967  13   6  12   9
 -0.0722745382835099  13   6  12  12
  0.0714887645414495  13   6  13   6
 -0.0050694188566310  13   7   4   3
 -0.0023856828679181  13   7   7   6
 -0.0060104629514767  13   7  10   4
 -0.0060104629514767  13   7  11   3
 -0.0003947085091585  13   7  11  10
  0.0073991327197062  13   7  13   7
 -0.0256642349554069  13   8   4   1
  0.0076439147959070  13   8   5   4
 -0.0261335608661703  13   8   6   2
 -0.0019119086959500  13   8   8   6
 -0.0046196923380615  13   8   9   4
 -0.0086543195433070  13   8  11   1
 -0.0070170971452268  13   8  11   5
 -0.0013868885513123  13   8  11   9
  0.0003828210139126  13   8  12   4
 -0.0190795594679512  13   8  12  11
  0.0081100699837335  13   8  13   2
  0.0169221390679039  13   8  13   8
 -0.0096018494855246  13   9   4   2
 -0.0059375122389573  13   9   6   1
  0.0118051559776107  13   9   6   5
 -0.0008256607093555  13   9   8   4
  0.0009913496627532  13   9   9   6
  0.0001273428119198  13   9  11   2
 -0.0059042298202166  13   9  11   8
  0.0000529825928131  13   9  12   6
  0.0015383493034837  13   9  13   1
 -0.0015998102587560  13   9  13   5
  0.0088902105513968  13   9  13   9
 -0.0077855839380015  13  10   6   3
 -0.0077855839380015  13  10   7   4
 -0.0002688059463215  13  10  10   6
 -0.0002688059463215  13  10  11   7
  0.0037589646506440  13  10  13   3
  0.0080715667072147  13  10  13  10
 -0.0628391231457918  13  11   2   1
  0.0804142182730026  13  11   5   2
 -0.0878342438746629  13  11   6   4
 -0.0722630759986598  13  11   7   3
 -0.0271691825310055  13  11   8   1
 -0.0109126367393428  13  11   8   5
 -0.0113067526616228  13  11   9   2
 -0.0474639635082843  13  11   9   8
 -0.0140221982758847  13  11  10   7
 -0.0145598101685280  13  11  11   6
 -0.0377374475808559  13  11  12   2
 -0.0358786661782363  13  11  12   8
  0.0532323849333804  13  11  13   4
  0.0850555822551256  13  11  13  11
 -0.0253307201938453  13  12   4   2
 -0.0206903835917489  13  12   6   1
  0.0205050936078291  13  12   6   5
 -0.0087726614382924  13  12   8   4
 -0.0025896235898716  13  12   9   6
 -0.0032229273718747  13  12  11   2
 -0.0100933662658689  13  12  11   8
 -0.0006657737295135  13  12  12   6
  0.0117318781299576  13  12  13   1
 -0.0022800127087168  13  12  13   5
  0.0096758292898115  13  12  13   9
  0.0235366979823876  13  12  13  12
  0.4272998484890786  13  13   1   1
  0.3771609704339017  13  13   2   2
  0.3802300519765513  13  13   3   3
  0.4043841142225876  13  13   4   4
  0.0313956543086324  13  13   5   1
  0.3750075127144348  13  13   5   5
  0.3679068857575727  13  13   6   6
  0.3440077183378402  13  13   7   7
  0.0505444621765686  13  13   8   2
  0.2667492390413242  13  13   8   8
 -0.0188473013169794  13  13   9   1
 -0.0638731407454643  13  13   9   5
  0.3168507152517275  13  13   9   9
  0.0720516320256561  13  13  10   3
  0.3270478980297596  13  13  10  10
  0.0765098076036404  13  13  11   4
  0.3496176083643928  13  13  11  11
  0.0435559208116755  13  13  12   1
 -0.0400334465396622  13  13  12   5
  0.0003039527540034  13  13  12   9
  0.3449231968418232  13  13  12  12
 -0.0880573295802956  13  13  13   6
  0.3716959306287211  13  13  13  13
 -0.0189797792392807  14   1   3   2
 -0.0186992824040140  14   1   7   1
  0.0063184731957152  14   1   7   5
 -0.0113158854015377  14   1   8   3
 -0.0037187856110673  14   1   9   7
 -0.0106290577387606  14   1  10   2
 -0.0070496257157322  14   1  10   8
 -0.0090219843286732  14   1  12   7
  0.0183868438485388  14   1  14   1
 -0.0253125150031700  14   2   3   1
  0.0053552303898798  14   2   5   3
 -0.0212049549051700  14   2   7   2
 -0.0129062482778068  14   2   8   7
 -0.0065317821408904  14   2   9   3
 -0.0156643848890676  14   2  10   1
  0.0028932099585383  14   2  10   5
  0.0003465938528624  14   2  10   9
 -0.0112755711685814  14   2  12   3
 -0.0092320334118107  14   2  12  10
  0.0215929078425222  14   2  14   2
 -0.0473563530796001  14   3   2   1
  0.0501032529768238  14   3   5   2
 -0.0512212868836859  14   3   6   4
 -0.0620231380328938  14   3   7   3
 -0.0263339132076537  14   3   8   1
  0.0054172226920668  14   3   8   5
 -0.0180480670948393  14   3   9   2
 -0.0138073178380478  14   3   9   8
 -0.0367015872478665  14   3  10   7
 -0.0267473919105419  14   3  11   6
 -0.0423700448768879  14   3  12   2
 -0.0207731304888384  14   3  12   8
  0.0468766226758745  14   3  13   4
  0.0457144556320924  14   3  13  11
  0.0602705900765007  14   3  14   3
 -0.0054009255746041  14   4   6   3
 -0.0054009255746041  14   4   7   4
 -0.0049770976686624  14   4  10   6
 -0.0049770976686624  14   4  11   7
  0.0066969837003130  14   4  13   3
  0.0037589646506440  14   4  13  10
  0.0066969837003130  14   4  14   4
  0.0054129642745163  14   5   3   2
  0.0018951928956702  14   5   7   1
 -0.0043601061583578  14   5   7   5
  0.0035529994406901  14   5   8   3
  0.0060938379199014  14   5   9   7
  0.0065634465339081  14   5  10   2
 -0.0008656347583877  14   5  10   8
  0.0092591025393870  14   5  12   7
 -0.0036880886342154  14   5  14   1
  0.0103760642107797  14   5  14   5
 -0.0050694188566311  14   6   4   3
 -0.0023856828679181  14   6   7   6
 -0.0060104629514767  14   6  10   4
 -0.0060104629514767  14   6  11   3
 -0.0003947085091585  14   6  11  10
  0.0073991327197062  14   6  13   7
  0.0073991327197062  14   6  14   6
 -0.1344758099743391  14   7   1   1
 -0.0951580970350107  14   7   2   2
 -0.1127907424690270  14   7   3   3
 -0.1026519047557649  14   7   4   4
 -0.0244100019237407  14   7   5   1
 -0.0941165642341945  14   7   5   5
 -0.0765060850784258  14   7   6   6
 -0.0812774508142615  14   7   7   7
 -0.0359081795099912  14   7   8   2
 -0.0278388168444120  14   7   8   8
  0.0141250740676784  14   7   9   1
  0.0461123194261627  14   7   9   5
 -0.0568246184444158  14   7   9   9
 -0.0621966691191346  14   7  10   3
 -0.0701302867828414  14   7  10  10
 -0.0501757432161813  14   7  11   4
 -0.0693408697645247  14   7  11  11
 -0.0336566812024491  14   7  12   1
  0.0307936531509893  14   7  12   5
 -0.0017918260390966  14   7  12   9
 -0.0722745382835100  14   7  12  12
  0.0566904991020369  14   7  13   6
 -0.0826947694881312  14   7  13  13
  0.0714887645414496  14   7  14   7
 -0.0256642349554069  14   8   3   1
  0.0076439147959070  14   8   5   3
 -0.0261335608661703  14   8   7   2
 -0.0019119086959497  14   8   8   7
 -0.0046196923380615  14   8   9   3
 -0.0086543195433070  14   8  10   1
 -0.0070170971452267  14   8  10   5
 -0.0013868885513123  14   8  10   9
  0.0003828210139125  14   8  12   3
 -0.0190795594679511  14   8  12  10
  0.0081100699837336  14   8  14   2
  0.0169221390679041  14   8  14   8
 -0.0096018494855246  14   9   3   2
 -0.0059375122389573  14   9   7   1
  0.0118051559776107  14   9   7   5
 -0.0008256607093555  14   9   8   3
  0.0009913496627532  14   9   9   7
  0.0001273428119198  14   9  10   2
 -0.0059042298202167  14   9  10   8
  0.0000529825928131  14   9  12   7
  0.0015383493034837  14   9  14   1
 -0.0015998102587560  14   9  14   5
  0.0088902105513968  14   9  14   9
 -0.0628391231457918  14  10   2   1
  0.0804142182730025  14  10   5   2
 -0.0722630759986599  14  10   6   4
 -0.0878342438746628  14  10   7   3
 -0.0271691825310054  14  10   8   1
 -0.0109126367393429  14  10   8   5
 -0.0113067526616228  14  10   9   2
 -0.0474639635082846  14  10   9   8
 -0.0145598101685278  14  10  10   7
 -0.0140221982758850  14  10  11   6
 -0.0377374475808560  14  10  12   2
 -0.0358786661782360  14  10  12   8
  0.0457144556320923  14  10  13   4
  0.0689124488406963  14  10  13  11
  0.0532323849333805  14  10  14   3
  0.0850555822551254  14  10  14  10
 -0.0077855839380015  14  11   6   3
 -0.0077855839380015  14  11   7   4
 -0.0002688059463215  14  11  10   6
 -0.0002688059463215  14  11  11   7
  0.0037589646506440  14  11  13   3
  0.0080715667072147  14  11  13  10
  0.0037589646506441  14  11  14   4
  0.0080715667072147  14  11  14  11
 -0.0253307201938454  14  12   3   2
 -0.0206903835917489  14  12   7   1
  0.0205050936078291  14  12   7   5
 -0.0087726614382925  14  12   8   3
 -0.0025896235898716  14  12   9   7
 -0.0032229273718747  14  12  10   2
 -0.0100933662658689  14  12  10   8