 &FCI NORB=  26,NELEC=   8,MS2=   0,
  ORBSYM=5,1,3,5,7,5,1,1,5,1,7,3,5,1,7,3,2,6,2,6,2,6,4,8,1,5,
  ISYM=   1,
 &END
  0.2871053061463845   1   1   1   1
  0.0819684713426740   2   1   2   1
  0.2782288922637694   2   2   1   1
  0.3172069023238905   2   2   2   2
  0.0071393220741569   3   1   3   1
  0.0132737105680342   3   2   3   2
  0.2509969478339901   3   3   1   1
  0.3098187283473460   3   3   2   2
  0.3493377927399993   3   3   3   3
 -0.0064724756735163   4   1   1   1
 -0.0071025714625177   4   1   2   2
 -0.0078133591185752   4   1   3   3
  0.0086330772938597   4   1   4   1
 -0.0196377353344715   4   2   2   1
  0.0479609976886609   4   2   4   2
  0.0017304156316782   4   3   3   1
  0.0075715922517609   4   3   4   3
  0.3042145299541401   4   4   1   1
  0.3903301703584763   4   4   2   2
  0.3948678969235185   4   4   3   3
 -0.0062373729161514   4   4   4   1
  0.5951958031284769   4   4   4   4
 -0.0013868885513124   5   1   3   2
  0.0169221390679037   5   1   5   1
 -0.0059042298202165   5   2   3   1
  0.0032882608604273   5   2   4   3
  0.0088902105513969   5   2   5   2
 -0.0474639635082839   5   3   2   1
  0.0467883169357828   5   3   4   2
  0.0850555822551256   5   3   5   3
  0.0043305133921596   5   4   3   2
  0.0013025389503271   5   4   5   1
  0.0082147136184926   5   4   5   4
  0.2667492390413208   5   5   1   1
  0.3168507152517277   5   5   2   2
  0.3496176083643931   5   5   3   3
 -0.0096754503868781   5   5   4   1
  0.4189920904129431   5   5   4   4
  0.3716959306287220   5   5   5   5
 -0.0090963765900189   6   1   1   1
 -0.0350398389888890   6   1   2   2
 -0.0495281743205365   6   1   3   3
  0.0038900479251445   6   1   4   1
 -0.0796856964779685   6   1   4   4
 -0.0548286870074020   6   1   5   5
  0.0257723859453957   6   1   6   1
  0.0073476591900415   6   2   2   1
 -0.0060768912268682   6   2   4   2
 -0.0063614032860636   6   2   5   3
  0.0084739199288500   6   2   6   2
 -0.0088378489618507   6   3   3   1
 -0.0058572700663584   6   3   4   3
  0.0041817784448594   6   3   5   2
  0.0252746008055812   6   3   6   3
 -0.0005369068715682   6   4   1   1
 -0.0335483846620471   6   4   2   2
 -0.0463247132022707   6   4   3   3
 -0.0095136301811976   6   4   4   1
 -0.0828440098167821   6   4   4   4
 -0.0432954331901611   6   4   5   5
  0.0204662309824067   6   4   6   1
  0.0435392929854627   6   4   6   4
 -0.0091503720017768   6   5   3   2
 -0.0187649526061888   6   5   5   1
 -0.0037655555357834   6   5   5   4
  0.0378500086781739   6   5   6   5
  0.2703865311271543   6   6   1   1
  0.3219282865951291   6   6   2   2
  0.3384468923933603   6   6   3   3
 -0.0072466625374944   6   6   4   1
  0.4221268457583899   6   6   4   4
  0.3497325040951956   6   6   5   5
 -0.0518963879763543   6   6   6   1
 -0.0476389338744735   6   6   6   4
  0.3538984624561116   6   6   6   6
  0.0418083880086422   7   1   2   1
 -0.0202840159686236   7   1   4   2
 -0.0358786661782344   7   1   5   3
  0.0030756449010509   7   1   6   2
  0.0271934414768902   7   1   7   1
  0.0194753451086001   7   2   1   1
 -0.0041734963802135   7   2   2   2
 -0.0185360423903957   7   2   3   3
 -0.0027406392042120   7   2   4   1
 -0.0031512954440879   7   2   4   4
  0.0003039527540035   7   2   5   5
  0.0049683336331418   7   2   6   1
  0.0168311473515687   7   2   6   4
 -0.0097708537909695   7   2   6   6
  0.0303039164245016   7   2   7   2
 -0.0120318022915892   7   3   3   2
 -0.0190795594679504   7   3   5   1
 -0.0008324242330563   7   3   5   4
  0.0353503501899893   7   3   6   5
  0.0431754725829710   7   3   7   3
  0.0077647737931711   7   4   2   1
 -0.0043231075164002   7   4   4   2
 -0.0050394550013815   7   4   5   3
  0.0033281431018641   7   4   6   2
  0.0027132101199218   7   4   7   1
  0.0078201388101372   7   4   7   4
 -0.0100933662658683   7   5   3   1
 -0.0010456790760100   7   5   4   3
  0.0096758292898116   7   5   5   2
  0.0209439665183187   7   5   6   3
  0.0235366979823876   7   5   7   5
 -0.0199108881905134   7   6   2   1
  0.0263678615192231   7   6   4   2
  0.0429440236329011   7   6   5   3
 -0.0025112700494410   7   6   6   2
 -0.0162859204104136   7   6   7   1
 -0.0022254486042960   7   6   7   4
  0.0274607026662528   7   6   7   6
  0.2668695060445915   7   7   1   1
  0.3205286997426082   7   7   2   2
  0.3344168663507097   7   7   3   3
 -0.0155825924131141   7   7   4   1
  0.4037805591653371   7   7   4   4
  0.3449231968418240   7   7   5   5
 -0.0477480001148247   7   7   6   1
 -0.0293766096511541   7   7   6   4
  0.3406274861388603   7   7   6   6
 -0.0044833856520913   7   7   7   2
  0.3576271277201977   7   7   7   7
 -0.0053080836826103   8   1   2   1
  0.0127675907626167   8   1   4   2
  0.0156400893269222   8   1   5   3
  0.0027656786887006   8   1   6   2
 -0.0050732193263945   8   1   7   1
 -0.0013347170800015   8   1   7   4
  0.0102061973578303   8   1   7   6
  0.0098104844977346   8   1   8   1
 -0.0145958465332242   8   2   1   1
 -0.0272791205999171   8   2   2   2
 -0.0258344995285101   8   2   3   3
  0.0010479688264559   8   2   4   1
 -0.0586002348287909   8   2   4   4
 -0.0294880740517586   8   2   5   5
  0.0135043278588330   8   2   6   1
  0.0147120437496235   8   2   6   4
 -0.0334897826948031   8   2   6   6
  0.0029925991906725   8   2   7   2
 -0.0224324690754148   8   2   7   7
  0.0176653831846262   8   2   8   2
  0.0051989240088069   8   3   3   2
  0.0063716629648460   8   3   5   1
 -0.0007066391747078   8   3   5   4
 -0.0143367346352985   8   3   6   5
 -0.0159083332429524   8   3   7   3
  0.0104258246318966   8   3   8   3
  0.0500414443853351   8   4   2   1
 -0.0321952737276139   8   4   4   2
 -0.0430593552195635   8   4   5   3
  0.0015610546301975   8   4   6   2
  0.0292088364543210   8   4   7   1
  0.0134906647909832   8   4   7   4
 -0.0215140358448446   8   4   7   6
 -0.0143530060904376   8   4   8   1
  0.0634572036070245   8   4   8   4
  0.0039694075370379   8   5   3   1
  0.0014611551490061   8   5   4   3
 -0.0015875018308610   8   5   5   2
 -0.0112201552060910   8   5   6   3
 -0.0085887355264097   8   5   7   5
  0.0094543057763217   8   5   8   5
  0.0327350856053504   8   6   2   1
 -0.0215299791603655   8   6   4   2
 -0.0376054991204626   8   6   5   3
  0.0004601792582492   8   6   6   2
  0.0215776512453621   8   6   7   1
  0.0043976268796120   8   6   7   4
 -0.0189347238886782   8   6   7   6
 -0.0114399416147657   8   6   8   1
  0.0334591729810700   8   6   8   4
  0.0276446781944407   8   6   8   6
  0.0125259201980973   8   7   1   1
  0.0100717464444570   8   7   2   2
 -0.0012383748480434   8   7   3   3
 -0.0011948688304113   8   7   4   1
  0.0261168199370178   8   7   4   4
  0.0055095869576893   8   7   5   5
 -0.0004788088738823   8   7   6   1
  0.0032692255684810   8   7   6   4
  0.0055087367417337   8   7   6   6
  0.0116102017773603   8   7   7   2
  0.0105352336294780   8   7   7   7
 -0.0041071276021243   8   7   8   2
  0.0152173894715987   8   7   8   7
  0.2886195896068570   8   8   1   1
  0.3474755279143893   8   8   2   2
  0.3534538441897240   8   8   3   3
 -0.0179625312210044   8   8   4   1
  0.4689872014169669   8   8   4   4
  0.3685318733291976   8   8   5   5
 -0.0598952665709662   8   8   6   1
 -0.0366702696943822   8   8   6   4
  0.3731716351544517   8   8   6   6
 -0.0043141692501132   8   8   7   2
  0.3747645153610212   8   8   7   7
 -0.0432741555269303   8   8   8   2
  0.0204031206059965   8   8   8   7
  0.4322664062613877   8   8   8   8
 -0.0011874313174311   9   1   1   1
  0.0121427357672600   9   1   2   2
  0.0198240435182736   9   1   3   3
  0.0005908132076088   9   1   4   1
  0.0259908367049122   9   1   4   4
  0.0140298386673078   9   1   5   5
 -0.0082569498785826   9   1   6   1
 -0.0133552111028702   9   1   6   4
  0.0201202109794963   9   1   6   6
 -0.0137595747021095   9   1   7   2
  0.0110622290197524   9   1   7   7
 -0.0072045498962162   9   1   8   2
 -0.0047702902830721   9   1   8   7
  0.0191373276550225   9   1   8   8
  0.0098376866082307   9   1   9   1
 -0.0171235959155049   9   2   2   1
  0.0270385655615507   9   2   4   2
  0.0299778035333686   9   2   5   3
 -0.0035045977213003   9   2   6   2
 -0.0190003333565218   9   2   7   1
  0.0005104001861723   9   2   7   4
  0.0142043952017282   9   2   7   6
  0.0026882102879391   9   2   8   1
 -0.0162664151662733   9   2   8   4
 -0.0126735628659333   9   2   8   6
  0.0258804831454374   9   2   9   2
 -0.0008848842692667   9   3   3   1
  0.0047265642270931   9   3   4   3
  0.0055137311547213   9   3   5   2
  0.0036257421803449   9   3   6   3
  0.0082951100643126   9   3   7   5
  0.0007329547731894   9   3   8   5
  0.0104836352797265   9   3   9   3
  0.0033779866773340   9   4   1   1
  0.0384812119380611   9   4   2   2
  0.0497527835978487   9   4   3   3
  0.0121415780532953   9   4   4   1
  0.1024165619994269   9   4   4   4
  0.0546488014861853   9   4   5   5
 -0.0233813500476071   9   4   6   1
 -0.0498490097873604   9   4   6   4
  0.0510408305943759   9   4   6   6
 -0.0072833936949688   9   4   7   2
  0.0328515293329553   9   4   7   7
 -0.0142059679546317   9   4   8   2
 -0.0035953577933980   9   4   8   7
  0.0335300709305716   9   4   8   8
  0.0091724794079606   9   4   9   1
  0.0736322571098943   9   4   9   4
  0.0027962883892931   9   5   3   2
 -0.0056519602565883   9   5   5   1
  0.0060301997081580   9   5   5   4
  0.0047593240925261   9   5   6   5
  0.0126271693003726   9   5   7   3
 -0.0025406189450483   9   5   8   3
  0.0146580005788981   9   5   9   5
 -0.0182653844270412   9   6   1   1
 -0.0326858448583810   9   6   2   2
 -0.0310895804398434   9   6   3   3
 -0.0038540482806601   9   6   4   1
 -0.0788633555957271   9   6   4   4
 -0.0360660018739764   9   6   5   5
  0.0161401713588813   9   6   6   1
  0.0222263738581934   9   6   6   4
 -0.0405400201605189   9   6   6   6
  0.0021400894640085   9   6   7   2
 -0.0259653640604797   9   6   7   7
  0.0148987598624840   9   6   8   2
 -0.0050460797054861   9   6   8   7
 -0.0486826606796151   9   6   8   8
 -0.0080388978102865   9   6   9   1
 -0.0258510479828523   9   6   9   4
  0.0263863613366221   9   6   9   6
 -0.0511291385866614   9   7   2   1
  0.0347516993351491   9   7   4   2
  0.0577409310554094   9   7   5   3
  0.0011993619508761   9   7   6   2
 -0.0350427498413739   9   7   7   1
 -0.0044904856059814   9   7   7   4
  0.0320602664352167   9   7   7   6
  0.0116607106467918   9   7   8   1
 -0.0518988905735578   9   7   8   4
 -0.0345718864229965   9   7   8   6
  0.0285046548458863   9   7   9   2
  0.0776076380533464   9   7   9   7
 -0.0458245687726881   9   8   2   1
  0.0316749443962781   9   8   4   2
  0.0477551522035916   9   8   5   3
  0.0021684200608169   9   8   6   2
 -0.0308116037454317   9   8   7   1
 -0.0084718337555645   9   8   7   4
  0.0238543130103043   9   8   7   6
  0.0143996919689502   9   8   8   1
 -0.0551246096970036   9   8   8   4
 -0.0358944627292646   9   8   8   6
  0.0223780905268077   9   8   9   2
  0.0636796587784683   9   8   9   7
  0.0638182784700539   9   8   9   8
  0.2881852201752502   9   9   1   1
  0.3549765341009211   9   9   2   2
  0.3654832047710097   9   9   3   3
 -0.0168103294439978   9   9   4   1
  0.4950092034092244   9   9   4   4
  0.3884432757114695   9   9   5   5
 -0.0648998177176469   9   9   6   1
 -0.0439860401077928   9   9   6   4
  0.3829951649393085   9   9   6   6
  0.0061717306040925   9   9   7   2
  0.3970990299737202   9   9   7   7
 -0.0356063796822449   9   9   8   2
  0.0264728825202152   9   9   8   7
  0.4346548896309424   9   9   8   8
  0.0126673919863218   9   9   9   1
  0.0535458247142778   9   9   9   4
 -0.0472830594205226   9   9   9   6
  0.4698784832391256   9   9   9   9
  0.0362912095201287  10   1   2   1
 -0.0036594266817591  10   1   4   2
 -0.0109126367393435  10   1   5   3
  0.0060785627360613  10   1   6   2
  0.0149683630076340  10   1   7   1
  0.0060681691209701  10   1   7   4
 -0.0015311691997138  10   1   7   6
  0.0009231436806124  10   1   8   1
  0.0183025137220413  10   1   8   4
  0.0087380597266649  10   1   8   6
 -0.0020478340342490  10   1   9   2
 -0.0063660294834774  10   1   9   7
 -0.0091213371074471  10   1   9   8
  0.0249218711322707  10   1  10   1
 -0.0007211298277453  10   2   1   1
 -0.0436358747251514  10   2   2   2
 -0.0604223316563774  10   2   3   3
 -0.0031598512447445  10   2   4   1
 -0.1095046630810065  10   2   4   4
 -0.0638731407454646  10   2   5   5
  0.0285033615867133  10   2   6   1
  0.0382240443494483  10   2   6   4
 -0.0612726465485827  10   2   6   6
  0.0107375321095431  10   2   7   2
 -0.0582689070662319  10   2   7   7
  0.0167713731962926  10   2   8   2
 -0.0038271082529794  10   2   8   7
 -0.0689244337613444  10   2   8   8
 -0.0100435057522409  10   2   9   1
 -0.0488842990064536  10   2   9   4
  0.0227462159519189  10   2   9   6
 -0.0842569253950707  10   2   9   9
  0.0541675419045458  10   2  10   2
 -0.0056971795750592  10   3   3   2
 -0.0070170971452267  10   3   5   1
 -0.0058109656454750  10   3   5   4
  0.0118134788882273  10   3   6   5
  0.0129627231009520  10   3   7   3
 -0.0020092207985909  10   3   8   3
 -0.0001125974285174  10   3   9   5
  0.0112622245073126  10   3  10   3
 -0.0104501050332613  10   4   2   1
 -0.0297338841887189  10   4   4   2
 -0.0266577245732211  10   4   5   3
  0.0102003895349865  10   4   6   2
  0.0035843304396532  10   4   7   1
 -0.0038929994727672  10   4   7   4
 -0.0176988735525363  10   4   7   6
 -0.0021395958826318  10   4   8   1
 -0.0106837394544817  10   4   8   4
 -0.0003265689334823  10   4   8   6
 -0.0192148053621513  10   4   9   2
 -0.0007593797957419  10   4   9   7
  0.0077999207378737  10   4   9   8
 -0.0092262403689404  10   4  10   1
  0.0516030433217910  10   4  10   4
 -0.0008656347583877  10   5   3   1
 -0.0045020894511061  10   5   4   3
 -0.0015998102587560  10   5   5   2
  0.0015212666522043  10   5   6   3
 -0.0022800127087168  10   5   7   5
  0.0026072880846858  10   5   8   5
 -0.0012738259265986  10   5   9   3
  0.0103760642107797  10   5  10   5
 -0.0157782701553124  10   6   2   1
  0.0193009446975824  10   6   4   2
  0.0218757655762838  10   6   5   3
 -0.0030569170728711  10   6   6   2
 -0.0100269098075618  10   6   7   1
 -0.0076598090453360  10   6   7   4
  0.0125695199028867  10   6   7   6
  0.0058105621826611  10   6   8   1
 -0.0236962441398252  10   6   8   4
 -0.0109751452829403  10   6   8   6
  0.0083464160409559  10   6   9   2
  0.0179538831172228  10   6   9   7
  0.0188965221150007  10   6   9   8
 -0.0088462592049122  10   6  10   1
 -0.0029823951041885  10   6  10   4
  0.0164857652245582  10   6  10   6
 -0.0144317664786721  10   7   1   1
 -0.0229335489385228  10   7   2   2
 -0.0254063723797519  10   7   3   3
  0.0080022427407732  10   7   4   1
 -0.0558060100874834  10   7   4   4
 -0.0400334465396623  10   7   5   5
  0.0136439638314352  10   7   6   1
 -0.0047024504972460  10   7   6   4
 -0.0286976234860390  10   7   6   6
 -0.0157877577776456  10   7   7   2
 -0.0474726432919748  10   7   7   7
  0.0008476517271941  10   7   8   2
 -0.0115543393939538  10   7   8   7
 -0.0504677677973738  10   7   8   8
  0.0060282334618577  10   7   9   1
 -0.0034830313724419  10   7   9   4
  0.0066619835309526  10   7   9   6
 -0.0697102885001652  10   7   9   9
  0.0195044106896298  10   7  10   2
  0.0384833143653530  10   7  10   7
 -0.0113475706540238  10   8   1   1
  0.0075928329486321  10   8   2   2
  0.0185466908299234  10   8   3   3
  0.0097825254750329  10   8   4   1
  0.0118940494594996  10   8   4   4
  0.0108372783368273  10   8   5   5
 -0.0069182444031579  10   8   6   1
 -0.0299952318281402  10   8   6   4
  0.0162040376628146  10   8   6   6
 -0.0207098775444291  10   8   7   2
 -0.0030213755434364  10   8   7   7
 -0.0107694041557734  10   8   8   2
 -0.0129779014013943  10   8   8   7
 -0.0028419033032473  10   8   8   8
  0.0118108200578341  10   8   9   1
  0.0326995064991677  10   8   9   4
 -0.0069376460539356  10   8   9   6
 -0.0113981831071062  10   8   9   9
 -0.0207341982433613  10   8  10   2
  0.0212852533844329  10   8  10   7
  0.0444491635297828  10   8  10   8
  0.0326814387144962  10   9   2   1
 -0.0492438038197278  10   9   4   2
 -0.0530913301929204  10   9   5   3
  0.0008661374972294  10   9   6   2
  0.0325895867719289  10   9   7   1
  0.0046398538241117  10   9   7   4
 -0.0259991732302670  10   9   7   6
 -0.0126121625697916  10   9   8   1
  0.0501946052674044  10   9   8   4
  0.0333497300509168  10   9   8   6
 -0.0396472946750800  10   9   9   2
 -0.0664488388607514  10   9   9   7
 -0.0611570216012677  10   9   9   8
  0.0003688927821546  10   9  10   1
  0.0134738681657009  10   9  10   4
 -0.0190773436665465  10   9  10   6
  0.0859991698157691  10   9  10   9
  0.3005629325201568  10  10   1   1
  0.3544848622478910  10  10   2   2
  0.3499650212937073  10  10   3   3
 -0.0161684967994045  10  10   4   1
  0.4861332019938529  10  10   4   4
  0.3750075127144354  10  10   5   5
 -0.0589701409194237  10  10   6   1
 -0.0374748319719858  10  10   6   4
  0.3733720627254975  10  10   6   6
  0.0129106082140791  10  10   7   2
  0.3798346358837842  10  10   7   7
 -0.0421620836665613  10  10   8   2
  0.0292242897404935  10  10   8   7
  0.4287924195580121  10  10   8   8
  0.0097470257537596  10  10   9   1
  0.0456289893447941  10  10   9   4
 -0.0487699128281394  10  10   9   6
  0.4489793112043659  10  10   9   9
 -0.0714860661170200  10  10  10   2
 -0.0602327055430425  10  10  10   7
 -0.0107587205423660  10  10  10   8
  0.4495567526484932  10  10  10  10
 -0.0038023142412397  11   1   3   2
 -0.0042066480429755  11   1   5   1
 -0.0025372714055020  11   1   5   4
  0.0094751839130663  11   1   6   5
  0.0079570067143576  11   1   7   3
 -0.0035596298340625  11   1   8   3
 -0.0023109612335832  11   1   9   5
  0.0050581801728382  11   1  10   3
  0.0054289890749170  11   1  11   1
 -0.0003692270876351  11   2   3   1
 -0.0022797961638727  11   2   4   3
 -0.0011418367806060  11   2   5   2
 -0.0004045565220135  11   2   6   3
 -0.0002064026256929  11   2   7   5
  0.0001987364243196  11   2   8   5
 -0.0027091885482715  11   2   9   3
 -0.0012540601401993  11   2  10   5
  0.0041063125607543  11   2  11   2
  0.0072689605595981  11   3   2   1
 -0.0198690220044661  11   3   4   2
 -0.0236250030669775  11   3   5   3
  0.0027291371995379  11   3   6   2
  0.0092842335400855  11   3   7   1
  0.0027225725277267  11   3   7   4
 -0.0110880334535568  11   3   7   6
 -0.0067121178354167  11   3   8   1
  0.0116402252596994  11   3   8   4
  0.0111328530937829  11   3   8   6
 -0.0112066092514471  11   3   9   2
 -0.0088736687992624  11   3   9   7
 -0.0125527008639930  11   3   9   8
  0.0028484858980916  11   3  10   1
  0.0140828148506675  11   3  10   4
 -0.0088452592947820  11   3  10   6
  0.0188320174685956  11   3  10   9
  0.0165553614248110  11   3  11   3
 -0.0048274536146366  11   4   3   2
  0.0000670853485585  11   4   5   1
 -0.0056840240131747  11   4   5   4
  0.0057926541608998  11   4   6   5
  0.0001254460084880  11   4   7   3
  0.0004764644920403  11   4   8   3
 -0.0077214546528779  11   4   9   5
  0.0024360945685333  11   4  10   3
  0.0009394569401203  11   4  11   1
  0.0144040070899274  11   4  11   4
 -0.0118270270754032  11   5   1   1
 -0.0280305578100445  11   5   2   2
 -0.0363379390614969  11   5   3   3
 -0.0040651610039295  11   5   4   1
 -0.0622837260000147  11   5   4   4
 -0.0382418013625310  11   5   5   5
  0.0157940553520772  11   5   6   1
  0.0247792425519772  11   5   6   4
 -0.0399226716373721  11   5   6   6
  0.0074872297396592  11   5   7   2
 -0.0237338967198136  11   5   7   7
  0.0112754195688708  11   5   8   2
  0.0023997246306778  11   5   8   7
 -0.0353572085518316  11   5   8   8
 -0.0098366538329316  11   5   9   1
 -0.0289740765572973  11   5   9   4
  0.0191074758342747  11   5   9   6
 -0.0358567257023045  11   5   9   9
  0.0206985968785845  11   5  10   2
 -0.0011807087055874  11   5  10   7
 -0.0151104135302608  11   5  10   8
 -0.0321371560819057  11   5  10  10
  0.0245001064505660  11   5  11   5
  0.0026144282499545  11   6   3   2
  0.0119294031309799  11   6   5   1
  0.0058102186539564  11   6   5   4
 -0.0187617006742020  11   6   6   5
 -0.0131786197040955  11   6   7   3
  0.0048893665800940  11   6   8   3
  0.0031753306491502  11   6   9   5
 -0.0086597125492585  11   6  10   3
 -0.0078239604616209  11   6  11   1
 -0.0024124599329791  11   6  11   4
  0.0189102795269565  11   6  11   6
 -0.0012737252282797  11   7   3   1
  0.0019533739302075  11   7   4   3
  0.0035302884450843  11   7   5   2
  0.0041327079026088  11   7   6   3
  0.0074999585800486  11   7   7   5
 -0.0008879225230683  11   7   8   5
  0.0055036355767818  11   7   9   3
 -0.0041141221113367  11   7  10   5
 -0.0008337532785317  11   7  11   2
  0.0079281814397072  11   7  11   7
 -0.0044691417715978  11   8   3   1
 -0.0001050609126964  11   8   4   3
  0.0037363827430145  11   8   5   2
  0.0064279973435710  11   8   6   3
  0.0071763167748496  11   8   7   5
 -0.0029672612746260  11   8   8   5
  0.0002611343179027  11   8   9   3
 -0.0018689773151049  11   8  10   5
 -0.0017263965941903  11   8  11   2
  0.0042290894534708  11   8  11   7
  0.0107246330947321  11   8  11   8
 -0.0071652736748349  11   9   3   2
 -0.0151261526953290  11   9   5   1
 -0.0043482106251947  11   9   5   4
  0.0263637448858625  11   9   6   5
  0.0259429717625482  11   9   7   3
 -0.0094588891185921  11   9   8   3
  0.0041576669017234  11   9   9   5
  0.0091359153291707  11   9  10   3
  0.0078763873943830  11   9  11   1
 -0.0011156485092605  11   9  11   4
 -0.0184974175856045  11   9  11   6
  0.0298241706733286  11   9  11   9
  0.0092178683196503  11  10   3   1
  0.0020721794247125  11  10   4   3
 -0.0081046252133863  11  10   5   2
 -0.0162569299488864  11  10   6   3
 -0.0185795995583556  11  10   7   5
  0.0054559824611985  11  10   8   5
 -0.0035755160677062  11  10   9   3
  0.0041978880062403  11  10  10   5
  0.0006241785595335  11  10  11   2
 -0.0098413034929680  11  10  11   7
 -0.0131415916126164  11  10  11   8
  0.0333723660848733  11  10  11  10
  0.2898270526668600  11  11   1   1
  0.3426814594460646  11  11   2   2
  0.3606471589917212  11  11   3   3
 -0.0178883842566217  11  11   4   1
  0.4569716685019976  11  11   4   4
  0.3795960973937857  11  11   5   5
 -0.0598669696323709  11  11   6   1
 -0.0349870665411347  11  11   6   4
  0.3725688559447239  11  11   6   6
  0.0002599140960552  11  11   7   2
  0.3731873938562192  11  11   7   7
 -0.0384671940834369  11  11   8   2
  0.0174460066866178  11  11   8   7
  0.4178540090594621  11  11   8   8
  0.0167402811193465  11  11   9   1
  0.0329553364915183  11  11   9   4
 -0.0447081035650172  11  11   9   6
  0.4296437035476163  11  11   9   9
 -0.0616922480545229  11  11  10   2
 -0.0507805729652026  11  11  10   7
 -0.0053631017678596  11  11  10   8
  0.4272036898474633  11  11  10  10
 -0.0337336306510229  11  11  11   5
  0.4477407741082026  11  11  11  11
 -0.0001460983752088  12   1   3   1
  0.0011661740491641  12   1   4   3
  0.0009747842222401  12   1   5   2
  0.0011084054516304  12   1   6   3
  0.0029109827020563  12   1   7   5
 -0.0021639138163642  12   1   8   5
  0.0011867919705732  12   1   9   3
 -0.0046044655155674  12   1  10   5
  0.0018076939406171  12   1  11   2
  0.0019956003010953  12   1  11   7
 -0.0003596969800980  12   1  11   8
 -0.0015323231189564  12   1  11  10
  0.0032764904770951  12   1  12   1
 -0.0029769886459955  12   2   3   2
 -0.0002420723488910  12   2   5   1
  0.0000393779107706  12   2   5   4
  0.0005130146518438  12   2   6   5
  0.0051333383840258  12   2   7   3
 -0.0031139803903692  12   2   8   3
  0.0012448225882185  12   2   9   5
  0.0030776928813821  12   2  10   3
  0.0023839933029724  12   2  11   1
 -0.0043592700801224  12   2  11   4
  0.0004281698141204  12   2  11   6
  0.0004490029175208  12   2  11   9
  0.0078865749753758  12   2  12   2
  0.0034580062227934  12   3   1   1
  0.0048979001419482  12   3   2   2
  0.0001207510073964  12   3   3   3
  0.0029670357228756  12   3   4   1
  0.0080115653032562  12   3   4   4
 -0.0043698035494851  12   3   5   5
 -0.0006691538712740  12   3   6   1
 -0.0071897721611784  12   3   6   4
  0.0049979745695633  12   3   6   6
 -0.0045582104570392  12   3   7   2
 -0.0051587740450712  12   3   7   7
 -0.0064623578374551  12   3   8   2
  0.0024137950316420  12   3   8   7
  0.0044748616409884  12   3   8   8
  0.0040093396356249  12   3   9   1
  0.0024834823153992  12   3   9   4
 -0.0062051512599950  12   3   9   6
 -0.0025960415382736  12   3   9   9
 -0.0000992790706068  12   3  10   2
  0.0103633636455479  12   3  10   7
  0.0076930609196900  12   3  10   8
  0.0038603074282046  12   3  10  10
 -0.0057169484675863  12   3  11   5
  0.0059305596852758  12   3  11  11
  0.0127284248097177  12   3  12   3
  0.0013234285785883  12   4   3   1
  0.0023469115960986  12   4   4   3
  0.0003231597948141  12   4   5   2
 -0.0050853192785403  12   4   6   3
 -0.0033980577341828  12   4   7   5
  0.0036439806708411  12   4   8   5
  0.0009428294554745  12   4   9   3
  0.0010296569720946  12   4  10   5
 -0.0027594169302471  12   4  11   2
  0.0017461990637686  12   4  11   7
  0.0042779860831870  12   4  11   8
 -0.0021398273470268  12   4  11  10
 -0.0019847640358471  12   4  12   1
  0.0073180293821383  12   4  12   4
  0.0156297317782278  12   5   2   1
 -0.0192436893799154  12   5   4   2
 -0.0313271813936425  12   5   5   3
 -0.0019805970236915  12   5   6   2
  0.0156336282279668  12   5   7   1
 -0.0015047692870339  12   5   7   4
 -0.0162647696880591  12   5   7   6
 -0.0081116546590662  12   5   8   1
  0.0193768410104131  12   5   8   4
  0.0176535456064700  12   5   8   6
 -0.0155536368892593  12   5   9   2
 -0.0316945977773461  12   5   9   7
 -0.0258770893082445  12   5   9   8
 -0.0038914503436323  12   5  10   1
  0.0080657514857848  12   5  10   4
 -0.0037932243177738  12   5  10   6
  0.0333735084826038  12   5  10   9
  0.0066196467055997  12   5  11   3
  0.0238167133342439  12   5  12   5
 -0.0019462625333604  12   6   3   1
 -0.0024533314607869  12   6   4   3
  0.0006585632288598  12   6   5   2
  0.0037857375861776  12   6   6   3
  0.0018031297774718  12   6   7   5
  0.0011685045517913  12   6   8   5
 -0.0003027462213362  12   6   9   3
  0.0040030894573013  12   6  10   5
 -0.0013531063000683  12   6  11   2
  0.0004195903914753  12   6  11   7
  0.0031262142645500  12   6  11   8
 -0.0079503565716584  12   6  11  10
 -0.0027270638410075  12   6  12   1
  0.0015850185414176  12   6  12   4
  0.0061341459200814  12   6  12   6
  0.0035726864758596  12   7   3   2
  0.0088711767157512  12   7   5   1
 -0.0025264226893366  12   7   5   4
 -0.0154507708612428  12   7   6   5
 -0.0183254652914708  12   7   7   3
  0.0085047946441919  12   7   8   3
 -0.0072767241336493  12   7   9   5
 -0.0001279418640933  12   7  10   3
 -0.0023902711972454  12   7  11   1
  0.0031551890256680  12   7  11   4
  0.0067225740554184  12   7  11   6
 -0.0175625069592230  12   7  11   9
 -0.0007299474481019  12   7  12   2
  0.0173572357165117  12   7  12   7
 -0.0076844843258387  12   8   3   2
 -0.0061254330850920  12   8   5   1
 -0.0017031745139773  12   8   5   4
  0.0154835180384972  12   8   6   5
  0.0144705226392807  12   8   7   3
 -0.0043665185330142  12   8   8   3
 -0.0018662676258636  12   8   9   5
  0.0062406975286074  12   8  10   3
  0.0037019578291942  12   8  11   1
  0.0087434764849424  12   8  11   4
 -0.0062292002870622  12   8  11   6
  0.0073327444456486  12   8  11   9
 -0.0009181265777437  12   8  12   2
 -0.0048535774493158  12   8  12   7
  0.0160422421730100  12   8  12   8
  0.0045168558958582  12   9   3   1
  0.0003927555037978  12   9   4   3
 -0.0040181041916439  12   9   5   2
 -0.0083481179289245  12   9   6   3
 -0.0105976192552139  12   9   7   5
  0.0030541375669441  12   9   8   5
 -0.0015273233210211  12   9   9   3
  0.0058553046144060  12   9  10   5
 -0.0008843097773215  12   9  11   2
 -0.0072443259488817  12   9  11   7
 -0.0080443907734821  12   9  11   8
  0.0160451323638959  12   9  11  10
 -0.0018622297312057  12   9  12   1
 -0.0001204600893722  12   9  12   4
 -0.0021062929514423  12   9  12   6
  0.0131183121858684  12   9  12   9
 -0.0029875178379509  12  10   3   2
 -0.0209339709880788  12  10   5   1
 -0.0011011268875322  12  10   5   4
  0.0305692153961268  12  10   6   5
  0.0310329288293925  12  10   7   3
 -0.0084330339262245  12  10   8   3
  0.0102086994995274  12  10   9   5
  0.0109664264213369  12  10  10   3
  0.0076425793627963  12  10  11   1
 -0.0039894484033594  12  10  11   4
 -0.0229251093432010  12  10  11   6
  0.0332625270376104  12  10  11   9
 -0.0018101205861725  12  10  12   2
 -0.0210315256258813  12  10  12   7
  0.0109768931777004  12  10  12   8
  0.0496468972251852  12  10  12  10
  0.0575711967109512  12  11   2   1
 -0.0401454890778099  12  11   4   2
 -0.0651215053450923  12  11   5   3
 -0.0004708756193985  12  11   6   2
  0.0375886438249227  12  11   7   1
  0.0109533320372125  12  11   7   4
 -0.0334314705819280  12  11   7   6
 -0.0176625695482313  12  11   8   1
  0.0650962796890009  12  11   8   4
  0.0401271827871263  12  11   8   6
 -0.0245930222499140  12  11   9   2
 -0.0701337368224288  12  11   9   7
 -0.0650191156485252  12  11   9   8
  0.0149040571460661  12  11  10   1
 -0.0021824550133994  12  11  10   4
 -0.0278030510528295  12  11  10   6
  0.0640414568943406  12  11  10   9
  0.0186474677044076  12  11  11   3
  0.0313413930297460  12  11  12   5
  0.1020869592261186  12  11  12  11