 &FCI NORB=  28,NELEC=  12,MS2=   0,
  ORBSYM=1,8,1,8,8,8,1,1,1,8,1,8,8,1,1,1,8,1,1,8,8,8,8,8,1,1,1,8,
  KSYM=0,0,0,0,1,-1,0,-1,1,0,0,1,-1,0,-1,1,0,-2,2,0,1,-1,2,-2,0,-1,1,0,
  KMOD=0,
  ISYM=   1,
  IGENERAL=1,
  ITGENERAL=1,
 &END
  1.9658795954118879   1   1   1   1
 -0.1744606097391683   1   1   1   3
  0.0344140727956982   1   1   1   7
 -0.0108808382973783   1   1   1  11
 -0.1335136963184436   1   1   1  14
  0.0100712417280730   1   1   1  25
  1.9669975126219374   1   1   2   2
 -0.1530755577840733   1   1   2   4
 -0.0913305847464097   1   1   2  10
  0.0053931568183960   1   1   2  17
  0.1377537719175417   1   1   2  20
 -0.0588620472340784   1   1   2  28
 -0.1744606097391684   1   1   3   1
  0.7021189826262626   1   1   3   3
  0.0948863652237171   1   1   3   7
 -0.0701554978667830   1   1   3  11
  0.1305007247764494   1   1   3  14
  0.0041462392353506   1   1   3  25
 -0.1530755577840734   1   1   4   2
  0.5549923907978145   1   1   4   4
  0.1245473922693952   1   1   4  10
 -0.0796018889569843   1   1   4  17
 -0.1243137655245280   1   1   4  20
 -0.0212629525672454   1   1   4  28
  0.5809641093050917   1   1   5   5
  0.1973028897240528   1   1   5  12
 -0.0133156027498639   1   1   5  21
  0.5809641093050917   1   1   6   6
  0.1973028897240528   1   1   6  13
 -0.0133156027498639   1   1   6  22
  0.0344140727956982   1   1   7   1
  0.0948863652237171   1   1   7   3
  0.5604761741273570   1   1   7   7
 -0.1755365165404008   1   1   7  11
 -0.1039836167930474   1   1   7  14
  0.0209667958636499   1   1   7  25
  0.4912308366221785   1   1   8   8
 -0.2167747675382955   1   1   8  15
  0.0486220046234873   1   1   8  26
  0.4912308366221785   1   1   9   9
 -0.2167747675382955   1   1   9  16
  0.0486220046234873   1   1   9  27
 -0.0913305847464097   1   1  10   2
  0.1245473922693951   1   1  10   4
  0.3218971131120490   1   1  10  10
  0.0251224696041074   1   1  10  17
 -0.1249769533232361   1   1  10  20
  0.0014592440250749   1   1  10  28
 -0.0108808382973783   1   1  11   1
 -0.0701554978667831   1   1  11   3
 -0.1755365165404007   1   1  11   7
  0.4411248387530003   1   1  11  11
  0.0171944280802798   1   1  11  14
 -0.0539758518258165   1   1  11  25
  0.1973028897240528   1   1  12   5
  0.4862302799416888   1   1  12  12
 -0.0228519635121719   1   1  12  21
  0.1973028897240528   1   1  13   6
  0.4862302799416888   1   1  13  13
 -0.0228519635121719   1   1  13  22
 -0.1335136963184438   1   1  14   1
  0.1305007247764493   1   1  14   3
 -0.1039836167930473   1   1  14   7
  0.0171944280802798   1   1  14  11
  0.4910948739726771   1   1  14  14
  0.0192099162485389   1   1  14  25
 -0.2167747675382956   1   1  15   8
  0.5452531767905135   1   1  15  15
 -0.1050791539282475   1   1  15  26
 -0.2167747675382956   1   1  16   9
  0.5452531767905135   1   1  16  16
 -0.1050791539282475   1   1  16  27
  0.0053931568183963   1   1  17   2
 -0.0796018889569841   1   1  17   4
  0.0251224696041076   1   1  17  10
  0.6089861731954586   1   1  17  17
 -0.0991200672217316   1   1  17  20
  0.2124033757238429   1   1  17  28
  0.5021546384917415   1   1  18  18
  0.5021546384917415   1   1  19  19
  0.1377537719175424   1   1  20   2
 -0.1243137655245283   1   1  20   4
 -0.1249769533232366   1   1  20  10
 -0.0991200672217322   1   1  20  17
  0.5077070743158646   1   1  20  20
 -0.1344117216949302   1   1  20  28
 -0.0133156027498639   1   1  21   5
 -0.0228519635121719   1   1  21  12
  0.5401680973376682   1   1  21  21
 -0.0133156027498639   1   1  22   6
 -0.0228519635121719   1   1  22  13
  0.5401680973376682   1   1  22  22
  0.4907295974258472   1   1  23  23
  0.4907295974258472   1   1  24  24
  0.0100712417280731   1   1  25   1
  0.0041462392353508   1   1  25   3
  0.0209667958636500   1   1  25   7
 -0.0539758518258164   1   1  25  11
  0.0192099162485389   1   1  25  14
  0.5159442841615530   1   1  25  25
  0.0486220046234872   1   1  26   8
 -0.1050791539282474   1   1  26  15
  0.5153638477510188   1   1  26  26
  0.0486220046234872   1   1  27   9
 -0.1050791539282474   1   1  27  16
  0.5153638477510188   1   1  27  27
 -0.0588620472340786   1   1  28   2
 -0.0212629525672452   1   1  28   4
  0.0014592440250758   1   1  28  10
  0.2124033757238431   1   1  28  17
 -0.1344117216949272   1   1  28  20
  0.7585750361878770   1   1  28  28
  1.5410404494886638   1   2   1   2
 -0.1464439982620125   1   2   1   4
 -0.0902099561881077   1   2   1  10
 -0.0093543171046137   1   2   1  17
  0.1406285874461558   1   2   1  20
 -0.0779427385494026   1   2   1  28
  1.5410404494886634   1   2   2   1
 -0.1822429961853374   1   2   2   3
  0.0199607067539361   1   2   2   7
  0.0013923088526791   1   2   2  11
 -0.1285229038017144   1   2   2  14
  0.0093243831056964   1   2   2  25
 -0.1822429961853374   1   2   3   2
  0.1612782851144290   1   2   3   4
  0.0893360233460008   1   2   3  10
  0.0753479777127570   1   2   3  17
 -0.1523421090053236   1   2   3  20
  0.1251803645812612   1   2   3  28
 -0.1464439982620125   1   2   4   1
  0.1612782851144290   1   2   4   3
 -0.1739054016915625   1   2   4   7
  0.0560471386097484   1   2   4  11
  0.1482156567685830   1   2   4  14
 -0.0122758554315301   1   2   4  25
  0.1799748715057554   1   2   5   9
 -0.1710280567149164   1   2   5  16
  0.0537557285745871   1   2   5  27
  0.1799748715057554   1   2   6   8
 -0.1710280567149164   1   2   6  15
  0.0537557285745871   1   2   6  26
  0.0199607067539361   1   2   7   2
 -0.1739054016915625   1   2   7   4
 -0.0073006561246723   1   2   7  10
  0.1829335734861378   1   2   7  17
 -0.0391835244498410   1   2   7  20
  0.1327822683737918   1   2   7  28
  0.1799748715057554   1   2   8   6
  0.0975622109509748   1   2   8  13
 -0.1101793575146631   1   2   8  22
  0.1799748715057554   1   2   9   5
  0.0975622109509748   1   2   9  12
 -0.1101793575146631   1   2   9  21
 -0.0902099561881078   1   2  10   1
  0.0893360233460008   1   2  10   3
 -0.0073006561246723   1   2  10   7
  0.0614589386974432   1   2  10  11
  0.0863023945581735   1   2  10  14
 -0.0345645306075325   1   2  10  25
  0.0013923088526790   1   2  11   2
  0.0560471386097484   1   2  11   4
  0.0614589386974433   1   2  11  10
 -0.1180114789262146   1   2  11  17
  0.0183854724504830   1   2  11  20
 -0.1689824088726907   1   2  11  28
  0.0975622109509748   1   2  12   9
 -0.1927339308008644   1   2  12  16
  0.0771853783437240   1   2  12  27
  0.0975622109509748   1   2  13   8
 -0.1927339308008644   1   2  13  15
  0.0771853783437240   1   2  13  26
 -0.1285229038017141   1   2  14   2
  0.1482156567685830   1   2  14   4
  0.0863023945581736   1   2  14  10
 -0.1298680028773384   1   2  14  17
 -0.1056115591208492   1   2  14  20
 -0.0071523345204437   1   2  14  28
 -0.1710280567149164   1   2  15   6
 -0.1927339308008643   1   2  15  13
  0.0924653542640024   1   2  15  22
 -0.1710280567149164   1   2  16   5
 -0.1927339308008643   1   2  16  12
  0.0924653542640024   1   2  16  21
 -0.0093543171046139   1   2  17   1
  0.0753479777127569   1   2  17   3
  0.1829335734861378   1   2  17   7
 -0.1180114789262145   1   2  17  11
 -0.1298680028773385   1   2  17  14
 -0.1064713509550124   1   2  17  25
  0.1366644794429074   1   2  18  24
  0.1366644794429074   1   2  19  23
  0.1406285874461558   1   2  20   1
 -0.1523421090053236   1   2  20   3
 -0.0391835244498408   1   2  20   7
  0.0183854724504830   1   2  20  11
 -0.1056115591208493   1   2  20  14
  0.0774484274121847   1   2  20  25
 -0.1101793575146631   1   2  21   9
  0.0924653542640023   1   2  21  16
  0.1043806069059567   1   2  21  27
 -0.1101793575146631   1   2  22   8
  0.0924653542640023   1   2  22  15
  0.1043806069059567   1   2  22  26
  0.1366644794429075   1   2  23  19
  0.1366644794429075   1   2  24  18
  0.0093243831056960   1   2  25   2
 -0.0122758554315301   1   2  25   4
 -0.0345645306075328   1   2  25  10
 -0.1064713509550125   1   2  25  17
  0.0774484274121846   1   2  25  20
  0.0614997789648326   1   2  25  28
  0.0537557285745871   1   2  26   6
  0.0771853783437240   1   2  26  13
  0.1043806069059567   1   2  26  22
  0.0537557285745871   1   2  27   5
  0.0771853783437240   1   2  27  12
  0.1043806069059567   1   2  27  21
 -0.0779427385494026   1   2  28   1
  0.1251803645812613   1   2  28   3
  0.1327822683737919   1   2  28   7
 -0.1689824088726908   1   2  28  11
 -0.0071523345204436   1   2  28  14
  0.0614997789648327   1   2  28  25
 -0.1744606097391684   1   3   1   1
  0.0310227538827343   1   3   1   3
  0.0002678489311754   1   3   1   7
 -0.0035837606702710   1   3   1  11
  0.0190505026049896   1   3   1  14
 -0.0021200178531332   1   3   1  25
 -0.1746614063522079   1   3   2   2
  0.0224108223124440   1   3   2   4
  0.0148569249641081   1   3   2  10
  0.0066666640448828   1   3   2  17
 -0.0237752058708857   1   3   2  20
  0.0199666563547619   1   3   2  28
  0.0310227538827343   1   3   3   1
  0.0007448504920445   1   3   3   3
  0.0062582426521259   1   3   3   7
 -0.0027426598373000   1   3   3  11
 -0.0042848909272217   1   3   3  14
  0.0033767563723992   1   3   3  25
  0.0224108223124440   1   3   4   2
 -0.0095866822071616   1   3   4   4
 -0.0036943738314622   1   3   4  10
  0.0068773246915861   1   3   4  17
  0.0036972580877117   1   3   4  20
  0.0012838169278622   1   3   4  28
 -0.0007151333016008   1   3   5   5
 -0.0026009842081404   1   3   5  12
  0.0064460269604446   1   3   5  21
 -0.0007151333016008   1   3   6   6
 -0.0026009842081404   1   3   6  13
  0.0064460269604446   1   3   6  22
  0.0002678489311754   1   3   7   1
  0.0062582426521259   1   3   7   3
 -0.0042863749885907   1   3   7   7
  0.0018288085048770   1   3   7  11
  0.0068777801075741   1   3   7  14
  0.0053005896080524   1   3   7  25
 -0.0031043507278765   1   3   8   8
  0.0045555611643818   1   3   8  15
  0.0012454073851248   1   3   8  26
 -0.0031043507278765   1   3   9   9
  0.0045555611643818   1   3   9  16
  0.0012454073851248   1   3   9  27
  0.0148569249641081   1   3  10   2
 -0.0036943738314622   1   3  10   4
 -0.0027383154058306   1   3  10  10
  0.0024574221327581   1   3  10  17
  0.0022138020213815   1   3  10  20
  0.0006089078546986   1   3  10  28
 -0.0035837606702710   1   3  11   1
 -0.0027426598373000   1   3  11   3
  0.0018288085048770   1   3  11   7
 -0.0016341242658918   1   3  11  11
 -0.0053647876858285   1   3  11  14
 -0.0032171892118266   1   3  11  25
 -0.0026009842081404   1   3  12   5
 -0.0029660129116925   1   3  12  12
  0.0045697995767423   1   3  12  21
 -0.0026009842081404   1   3  13   6
 -0.0029660129116925   1   3  13  13
  0.0045697995767423   1   3  13  22
  0.0190505026049896   1   3  14   1
 -0.0042848909272217   1   3  14   3
  0.0068777801075741   1   3  14   7
 -0.0053647876858285   1   3  14  11
 -0.0068836489834544   1   3  14  14
 -0.0011062631801524   1   3  14  25
  0.0045555611643818   1   3  15   8
 -0.0070965271518561   1   3  15  15
  0.0004185377193723   1   3  15  26
  0.0045555611643818   1   3  16   9
 -0.0070965271518561   1   3  16  16
  0.0004185377193723   1   3  16  27
  0.0066666640448828   1   3  17   2
  0.0068773246915861   1   3  17   4
  0.0024574221327581   1   3  17  10
 -0.0082206558401217   1   3  17  17
 -0.0012818719094757   1   3  17  20
 -0.0053899669599789   1   3  17  28
  0.0020961811892258   1   3  18  18
  0.0020961811892258   1   3  19  19
 -0.0237752058708857   1   3  20   2
  0.0036972580877117   1   3  20   4
  0.0022138020213815   1   3  20  10
 -0.0012818719094757   1   3  20  17
 -0.0026563149315808   1   3  20  20
 -0.0004387391271853   1   3  20  28
  0.0064460269604446   1   3  21   5
  0.0045697995767423   1   3  21  12
 -0.0005891536756972   1   3  21  21
  0.0064460269604446   1   3  22   6
  0.0045697995767423   1   3  22  13
 -0.0005891536756972   1   3  22  22
  0.0004131718251142   1   3  23  23
  0.0004131718251142   1   3  24  24
 -0.0021200178531332   1   3  25   1
  0.0033767563723992   1   3  25   3
  0.0053005896080524   1   3  25   7
 -0.0032171892118266   1   3  25  11
 -0.0011062631801524   1   3  25  14
 -0.0003418632078485   1   3  25  25
  0.0012454073851248   1   3  26   8
  0.0004185377193723   1   3  26  15
 -0.0013188843825783   1   3  26  26
  0.0012454073851248   1   3  27   9
  0.0004185377193723   1   3  27  16
 -0.0013188843825783   1   3  27  27
  0.0199666563547619   1   3  28   2
  0.0012838169278622   1   3  28   4
  0.0006089078546986   1   3  28  10
 -0.0053899669599789   1   3  28  17
 -0.0004387391271853   1   3  28  20
 -0.0091992839694967   1   3  28  28
 -0.1464439982620125   1   4   1   2
  0.0225885215590446   1   4   1   4
  0.0129777051593135   1   4   1  10
 -0.0049707642720672   1   4   1  17
 -0.0178437353963782   1   4   1  20
  0.0017324197762892   1   4   1  28
 -0.1464439982620125   1   4   2   1
  0.0226352128615191   1   4   2   3
 -0.0079263791168333   1   4   2   7
  0.0047495130189538   1   4   2  11
  0.0199805268482800   1   4   2  14
  0.0002030843273160   1   4   2  25
  0.0226352128615191   1   4   3   2
 -0.0027144887437587   1   4   3   4
 -0.0032771538736960   1   4   3  10
 -0.0046569085105040   1   4   3  17
  0.0067200990914883   1   4   3  20
 -0.0082912328858432   1   4   3  28
  0.0225885215590446   1   4   4   1
 -0.0027144887437587   1   4   4   3
 -0.0036165169446181   1   4   4   7
  0.0000847101359369   1   4   4  11
 -0.0012628217037371   1   4   4  14
  0.0012546812973828   1   4   4  25
 -0.0007691716815554   1   4   5   9
  0.0034396010116134   1   4   5  16
 -0.0040762430590173   1   4   5  27
 -0.0007691716815554   1   4   6   8
  0.0034396010116134   1   4   6  15
 -0.0040762430590173   1   4   6  26
 -0.0079263791168333   1   4   7   2
 -0.0036165169446181   1   4   7   4
 -0.0001305273624467   1   4   7  10
 -0.0009416949379782   1   4   7  17
  0.0009959503929014   1   4   7  20
 -0.0077963534825785   1   4   7  28
 -0.0007691716815554   1   4   8   6
 -0.0032775489754725   1   4   8  13
 -0.0017710309803193   1   4   8  22
 -0.0007691716815554   1   4   9   5
 -0.0032775489754725   1   4   9  12
 -0.0017710309803193   1   4   9  21
  0.0129777051593135   1   4  10   1
 -0.0032771538736960   1   4  10   3
 -0.0001305273624467   1   4  10   7
  0.0022516886414680   1   4  10  11
 -0.0008412601443172   1   4  10  14
 -0.0002853516153640   1   4  10  25
  0.0047495130189538   1   4  11   2
  0.0000847101359369   1   4  11   4
  0.0022516886414680   1   4  11  10
  0.0030129087590485   1   4  11  17
 -0.0021589690997546   1   4  11  20
  0.0064433008098562   1   4  11  28
 -0.0032775489754725   1   4  12   9
  0.0036704977298979   1   4  12  16
 -0.0032640968001691   1   4  12  27
 -0.0032775489754725   1   4  13   8
  0.0036704977298979   1   4  13  15
 -0.0032640968001691   1   4  13  26
  0.0199805268482800   1   4  14   2
 -0.0012628217037371   1   4  14   4
 -0.0008412601443172   1   4  14  10
 -0.0030646507977869   1   4  14  17
  0.0026617416469967   1   4  14  20
 -0.0002632417023775   1   4  14  28
  0.0034396010116134   1   4  15   6
  0.0036704977298979   1   4  15  13
  0.0000683652350099   1   4  15  22
  0.0034396010116134   1   4  16   5
  0.0036704977298979   1   4  16  12
  0.0000683652350099   1   4  16  21
 -0.0049707642720672   1   4  17   1
 -0.0046569085105040   1   4  17   3
 -0.0009416949379782   1   4  17   7
  0.0030129087590485   1   4  17  11
 -0.0030646507977869   1   4  17  14
 -0.0025813907281887   1   4  17  25
  0.0017586775430057   1   4  18  24
  0.0017586775430057   1   4  19  23
 -0.0178437353963782   1   4  20   1
  0.0067200990914883   1   4  20   3
  0.0009959503929014   1   4  20   7
 -0.0021589690997546   1   4  20  11
  0.0026617416469967   1   4  20  14
  0.0009465406187452   1   4  20  25
 -0.0017710309803193   1   4  21   9
  0.0000683652350099   1   4  21  16
  0.0036067508500477   1   4  21  27
 -0.0017710309803193   1   4  22   8
  0.0000683652350099   1   4  22  15
  0.0036067508500477   1   4  22  26
  0.0017586775430057   1   4  23  19
  0.0017586775430057   1   4  24  18
  0.0002030843273160   1   4  25   2
  0.0012546812973828   1   4  25   4
 -0.0002853516153640   1   4  25  10
 -0.0025813907281887   1   4  25  17
  0.0009465406187452   1   4  25  20
  0.0026836806665979   1   4  25  28
 -0.0040762430590173   1   4  26   6
 -0.0032640968001691   1   4  26  13
  0.0036067508500477   1   4  26  22
 -0.0040762430590173   1   4  27   5
 -0.0032640968001691   1   4  27  12
  0.0036067508500477   1   4  27  21
  0.0017324197762892   1   4  28   1
 -0.0082912328858432   1   4  28   3
 -0.0077963534825785   1   4  28   7
  0.0064433008098562   1   4  28  11
 -0.0002632417023775   1   4  28  14
  0.0026836806665979   1   4  28  25
 -0.0098438792232841   1   5   1   6
 -0.0113396134566429   1   5   1  13
  0.0050552371083183   1   5   1  22
 -0.0087355065401812   1   5   2   8
  0.0135977073987083   1   5   2  15
 -0.0061207890481925   1   5   2  26
 -0.0146515204345858   1   5   3   6
 -0.0083063509049646   1   5   3  13
 -0.0027240722924308   1   5   3  22
 -0.0109146735545439   1   5   4   8
  0.0082198159840393   1   5   4  15
  0.0006152932550281   1   5   4  26
  0.0098438792232841   1   5   5   1
  0.0146515204345858   1   5   5   3
 -0.0012978702292270   1   5   5   7
  0.0022373084174071   1   5   5  11
  0.0032549451934176   1   5   5  14
 -0.0049049391808951   1   5   5  25
 -0.0129743172092555   1   5   6  18
  0.0012978702292270   1   5   7   6
 -0.0016354455852968   1   5   7  13
 -0.0092731636325191   1   5   7  22
 -0.0112072615294192   1   5   8  24
  0.0087355065401812   1   5   9   2
  0.0109146735545439   1   5   9   4
  0.0048801943100685   1   5   9  10
  0.0035320175414662   1   5   9  17
 -0.0059045920403216   1   5   9  20
 -0.0002478568359035   1   5   9  28
 -0.0048801943100685   1   5  10   8
  0.0059739225385792   1   5  10  15
 -0.0026060463458880   1   5  10  26
 -0.0022373084174071   1   5  11   6
  0.0013961375936099   1   5  11  13
  0.0021860961572931   1   5  11  22
  0.0113396134566429   1   5  12   1
  0.0083063509049646   1   5  12   3
  0.0016354455852968   1   5  12   7
 -0.0013961375936099   1   5  12  11
  0.0078852553012227   1   5  12  14
 -0.0037331585656574   1   5  12  25
 -0.0044477720332421   1   5  13  18
 -0.0032549451934176   1   5  14   6
 -0.0078852553012227   1   5  14  13
  0.0052215814249517   1   5  14  22
  0.0073310295838570   1   5  15  24
 -0.0135977073987083   1   5  16   2
 -0.0082198159840393   1   5  16   4
 -0.0059739225385792   1   5  16  10
 -0.0003237097327574   1   5  16  17
  0.0107312020566879   1   5  16  20
 -0.0017028117659841   1   5  16  28
 -0.0035320175414662   1   5  17   8
  0.0003237097327574   1   5  17  15
 -0.0082540533181900   1   5  17  26
  0.0129743172092555   1   5  19   5
  0.0044477720332421   1   5  19  12
  0.0001312974536837   1   5  19  21
  0.0059045920403216   1   5  20   8
 -0.0107312020566879   1   5  20  15
  0.0066966239028670   1   5  20  26
 -0.0050552371083183   1   5  21   1
  0.0027240722924308   1   5  21   3
  0.0092731636325191   1   5  21   7
 -0.0021860961572931   1   5  21  11
 -0.0052215814249517   1   5  21  14
  0.0040079488911907   1   5  21  25
 -0.0001312974536837   1   5  22  18
  0.0112072615294192   1   5  23   9
 -0.0073310295838570   1   5  23  16
  0.0027531856659757   1   5  23  27
  0.0049049391808951   1   5  25   6
  0.0037331585656574   1   5  25  13
 -0.0040079488911907   1   5  25  22
 -0.0027531856659757   1   5  26  24
  0.0061207890481925   1   5  27   2
 -0.0006152932550281   1   5  27   4
  0.0026060463458880   1   5  27  10
  0.0082540533181900   1   5  27  17
 -0.0066966239028670   1   5  27  20
  0.0037967840542846   1   5  27  28
  0.0002478568359035   1   5  28   8
  0.0017028117659841   1   5  28  15
 -0.0037967840542846   1   5  28  26
 -0.0098438792232841   1   6   1   5
 -0.0113396134566429   1   6   1  12
  0.0050552371083183   1   6   1  21
 -0.0087355065401812   1   6   2   9
  0.0135977073987083   1   6   2  16
 -0.0061207890481925   1   6   2  27
 -0.0146515204345858   1   6   3   5
 -0.0083063509049646   1   6   3  12
 -0.0027240722924308   1   6   3  21
 -0.0109146735545439   1   6   4   9
  0.0082198159840393   1   6   4  16
  0.0006152932550281   1   6   4  27
 -0.0129743172092555   1   6   5  19
  0.0098438792232841   1   6   6   1
  0.0146515204345858   1   6   6   3
 -0.0012978702292270   1   6   6   7
  0.0022373084174071   1   6   6  11
  0.0032549451934176   1   6   6  14
 -0.0049049391808951   1   6   6  25
  0.0012978702292270   1   6   7   5
 -0.0016354455852968   1   6   7  12
 -0.0092731636325191   1   6   7  21
  0.0087355065401812   1   6   8   2
  0.0109146735545439   1   6   8   4
  0.0048801943100685   1   6   8  10
  0.0035320175414662   1   6   8  17
 -0.0059045920403216   1   6   8  20
 -0.0002478568359035   1   6   8  28
 -0.0112072615294192   1   6   9  23
 -0.0048801943100685   1   6  10   9
  0.0059739225385792   1   6  10  16
 -0.0026060463458880   1   6  10  27
 -0.0022373084174071   1   6  11   5
  0.0013961375936099   1   6  11  12
  0.0021860961572931   1   6  11  21
 -0.0044477720332421   1   6  12  19
  0.0113396134566429   1   6  13   1
  0.0083063509049646   1   6  13   3
  0.0016354455852968   1   6  13   7
 -0.0013961375936099   1   6  13  11
  0.0078852553012227   1   6  13  14
 -0.0037331585656574   1   6  13  25
 -0.0032549451934176   1   6  14   5
 -0.0078852553012227   1   6  14  12
  0.0052215814249517   1   6  14  21
 -0.0135977073987083   1   6  15   2
 -0.0082198159840393   1   6  15   4
 -0.0059739225385792   1   6  15  10
 -0.0003237097327574   1   6  15  17
  0.0107312020566879   1   6  15  20
 -0.0017028117659841   1   6  15  28
  0.0073310295838570   1   6  16  23
 -0.0035320175414662   1   6  17   9
  0.0003237097327574   1   6  17  16
 -0.0082540533181900   1   6  17  27
  0.0129743172092555   1   6  18   6
  0.0044477720332421   1   6  18  13
  0.0001312974536837   1   6  18  22
  0.0059045920403216   1   6  20   9
 -0.0107312020566879   1   6  20  16
  0.0066966239028670   1   6  20  27
 -0.0001312974536837   1   6  21  19
 -0.0050552371083183   1   6  22   1
  0.0027240722924308   1   6  22   3
  0.0092731636325191   1   6  22   7
 -0.0021860961572931   1   6  22  11
 -0.0052215814249517   1   6  22  14
  0.0040079488911907   1   6  22  25
  0.0112072615294192   1   6  24   8
 -0.0073310295838570   1   6  24  15
  0.0027531856659757   1   6  24  26
  0.0049049391808951   1   6  25   5
  0.0037331585656574   1   6  25  12
 -0.0040079488911907   1   6  25  21
  0.0061207890481925   1   6  26   2
 -0.0006152932550281   1   6  26   4
  0.0026060463458880   1   6  26  10
  0.0082540533181900   1   6  26  17
 -0.0066966239028670   1   6  26  20
  0.0037967840542846   1   6  26  28
 -0.0027531856659757   1   6  27  23
  0.0002478568359035   1   6  28   9
  0.0017028117659841   1   6  28  16
 -0.0037967840542846   1   6  28  27
  0.0344140727956982   1   7   1   1
  0.0002678489311754   1   7   1   3
  0.0110932019387949   1   7   1   7
 -0.0100416769176593   1   7   1  11
 -0.0080907743937567   1   7   1  14
 -0.0022470288342763   1   7   1  25
  0.0344103060551217   1   7   2   2
 -0.0083690520754865   1   7   2   4
 -0.0028330146331381   1   7   2  10
  0.0133196974346399   1   7   2  17
  0.0005822039578561   1   7   2  20
  0.0173932561559850   1   7   2  28
  0.0002678489311754   1   7   3   1
  0.0210300177741712   1   7   3   3
  0.0145275367029794   1   7   3   7
 -0.0090619401685260   1   7   3  11
  0.0022260148747790   1   7   3  14
  0.0052848132370349   1   7   3  25
 -0.0083690520754865   1   7   4   2
 -0.0053718957898722   1   7   4   4
  0.0005607401177623   1   7   4  10
  0.0097209826109097   1   7   4  17
 -0.0031820995185182   1   7   4  20
  0.0013127226837367   1   7   4  28
  0.0078913140632966   1   7   5   5
  0.0051395584674109   1   7   5  12
  0.0088142166433407   1   7   5  21
  0.0078913140632966   1   7   6   6
  0.0051395584674109   1   7   6  13
  0.0088142166433407   1   7   6  22
  0.0110932019387949   1   7   7   1
  0.0145275367029794   1   7   7   3
  0.0006324075395200   1   7   7   7
 -0.0050001895446592   1   7   7  11
  0.0081258395809802   1   7   7  14
  0.0093150999351501   1   7   7  25
  0.0010272760098561   1   7   8   8
 -0.0018965027497699   1   7   8  15
  0.0075120031369212   1   7   8  26
  0.0010272760098561   1   7   9   9
 -0.0018965027497699   1   7   9  16
  0.0075120031369212   1   7   9  27
 -0.0028330146331381   1   7  10   2
  0.0005607401177623   1   7  10   4
 -0.0006927575943792   1   7  10  10
  0.0050025212885833   1   7  10  17
 -0.0027481951822400   1   7  10  20
  0.0042560386674581   1   7  10  28
 -0.0100416769176593   1   7  11   1
 -0.0090619401685260   1   7  11   3
 -0.0050001895446592   1   7  11   7
  0.0049597486927661   1   7  11  11
 -0.0068455781777961   1   7  11  14
 -0.0048764932289842   1   7  11  25
  0.0051395584674109   1   7  12   5
  0.0059743288962218   1   7  12  12
  0.0042599820622717   1   7  12  21
  0.0051395584674109   1   7  13   6
  0.0059743288962218   1   7  13  13
  0.0042599820622717   1   7  13  22
 -0.0080907743937567   1   7  14   1
  0.0022260148747790   1   7  14   3
  0.0081258395809802   1   7  14   7
 -0.0068455781777961   1   7  14  11
 -0.0023208169750419   1   7  14  14
 -0.0019881071853669   1   7  14  25
 -0.0018965027497699   1   7  15   8
  0.0028041177553956   1   7  15  15
 -0.0068727693014468   1   7  15  26
 -0.0018965027497699   1   7  16   9
  0.0028041177553956   1   7  16  16
 -0.0068727693014468   1   7  16  27
  0.0133196974346399   1   7  17   2
  0.0097209826109097   1   7  17   4
  0.0050025212885833   1   7  17  10
 -0.0012182971087835   1   7  17  17
 -0.0065209465752760   1   7  17  20
  0.0107817592228292   1   7  17  28
  0.0055733700136479   1   7  18  18
  0.0055733700136479   1   7  19  19
  0.0005822039578561   1   7  20   2
 -0.0031820995185182   1   7  20   4
 -0.0027481951822400   1   7  20  10
 -0.0065209465752760   1   7  20  17
  0.0072251850005420   1   7  20  20
 -0.0114074687217801   1   7  20  28
  0.0088142166433407   1   7  21   5
  0.0042599820622717   1   7  21  12
  0.0024138160620612   1   7  21  21
  0.0088142166433407   1   7  22   6
  0.0042599820622717   1   7  22  13
  0.0024138160620612   1   7  22  22
  0.0023367084506660   1   7  23  23
  0.0023367084506660   1   7  24  24
 -0.0022470288342764   1   7  25   1
  0.0052848132370349   1   7  25   3
  0.0093150999351501   1   7  25   7
 -0.0048764932289842   1   7  25  11
 -0.0019881071853669   1   7  25  14
  0.0022739203523682   1   7  25  25
  0.0075120031369212   1   7  26   8
 -0.0068727693014468   1   7  26  15
  0.0021339519276262   1   7  26  26
  0.0075120031369212   1   7  27   9
 -0.0068727693014468   1   7  27  16
  0.0021339519276262   1   7  27  27
  0.0173932561559850   1   7  28   2
  0.0013127226837367   1   7  28   4
  0.0042560386674580   1   7  28  10
  0.0107817592228292   1   7  28  17
 -0.0114074687217802   1   7  28  20
  0.0167220323936748   1   7  28  28
 -0.0075097153701318   1   8   1   9
  0.0117236887211087   1   8   1  16
 -0.0051442040434206   1   8   1  27
 -0.0083475614718813   1   8   2   5
 -0.0096889576635754   1   8   2  12
  0.0045615104618409   1   8   2  21
 -0.0071642752958341   1   8   3   9
  0.0069839046316220   1   8   3  16
 -0.0036762056621066   1   8   3  27
 -0.0078915713849062   1   8   4   5
 -0.0043347673675016   1   8   4  12
  0.0058251939871009   1   8   4  21
 -0.0079539037332093   1   8   5  23
  0.0083475614718813   1   8   6   2
  0.0078915713849062   1   8   6   4
  0.0042725022290292   1   8   6  10
  0.0024302041343522   1   8   6  17
 -0.0063511250636174   1   8   6  20
  0.0006330305051529   1   8   6  28
  0.0036775761868675   1   8   7   9
 -0.0019926373981672   1   8   7  16
 -0.0050322807110580   1   8   7  27
  0.0075097153701318   1   8   8   1
  0.0071642752958341   1   8   8   3
 -0.0036775761868675   1   8   8   7
  0.0014878288463753   1   8   8  11
  0.0037372742182062   1   8   8  14
 -0.0044087084267696   1   8   8  25
 -0.0069226599039404   1   8   9  19
 -0.0042725022290292   1   8  10   5
 -0.0033502601702210   1   8  10  12
  0.0015052254581274   1   8  10  21
 -0.0014878288463753   1   8  11   9
  0.0015931181163439   1   8  11  16
  0.0013325901499052   1   8  11  27
 -0.0036219807753785   1   8  12  23
  0.0096889576635754   1   8  13   2
  0.0043347673675016   1   8  13   4
  0.0033502601702210   1   8  13  10
  0.0006199110555553   1   8  13  17
 -0.0067726754416752   1   8  13  20
  0.0017839968470516   1   8  13  28
 -0.0037372742182062   1   8  14   9
  0.0063457183079203   1   8  14  16
  0.0007982954029440   1   8  14  27
 -0.0117236887211087   1   8  15   1
 -0.0069839046316220   1   8  15   3
  0.0019926373981672   1   8  15   7
 -0.0015931181163439   1   8  15  11
 -0.0063457183079203   1   8  15  14
  0.0041114342461245   1   8  15  25
  0.0053029209875982   1   8  16  19
 -0.0024302041343522   1   8  17   5
 -0.0006199110555553   1   8  17  12
 -0.0039422227865289   1   8  17  21
  0.0069226599039404   1   8  18   8
 -0.0053029209875982   1   8  18  15
  0.0016631339126189   1   8  18  26
  0.0063511250636174   1   8  20   5
  0.0067726754416752   1   8  20  12
 -0.0004363135940294   1   8  20  21
  0.0035433000904547   1   8  21  23
 -0.0045615104618409   1   8  22   2
 -0.0058251939871009   1   8  22   4
 -0.0015052254581274   1   8  22  10
  0.0039422227865289   1   8  22  17
  0.0004363135940294   1   8  22  20
  0.0026422935230494   1   8  22  28
  0.0079539037332093   1   8  24   6
  0.0036219807753785   1   8  24  13
 -0.0035433000904547   1   8  24  22
  0.0044087084267696   1   8  25   9
 -0.0041114342461245   1   8  25  16
  0.0024759741546618   1   8  25  27
  0.0051442040434206   1   8  26   1
  0.0036762056621066   1   8  26   3