 &FCI NORB=  42,NELEC=48,MS2=0,
  ORBSYM=1,1,1,1,1,1,1,1,1,1,1,5,5,5,5,5,5,5,5,5,5,5,2,2,2,2,6,6,6,6,3,3,3,3,7,7,7,7,4,4,8,8,
  ISYM=1,
 &END
  7.4835160878854232   1   1   1   1
  0.0000764630202845   2   1   2   1
  0.6049324853812429   2   2   1   1
  0.4656455197638128   2   2   2   2
 -0.0847901344926056   3   1   1   1
 -0.0000819523306820   3   1   2   2
  0.0017585337968005   3   1   3   1
 -0.0000177835900070   3   2   2   1
  0.0087415749625509   3   2   3   2
  0.3103883604286852   3   3   1   1
  0.2827799783817173   3   3   2   2
 -0.0000591520776781   3   3   3   1
  0.2316375490409157   3   3   3   3
 -0.0397915066232767   4   1   1   1
 -0.0003675944538991   4   1   2   2
  0.0001980075516725   4   1   3   1
 -0.0002602940855884   4   1   3   3
  0.0134117435986447   4   1   4   1
 -0.0000091888076540   4   2   2   1
  0.0007581688351718   4   2   3   2
  0.0079306302658629   4   2   4   2
  0.0075647512068982   4   3   1   1
  0.0082528516175760   4   3   2   2
 -0.0000414838034387   4   3   3   1
  0.0034484287627922   4   3   3   3
  0.0007738831081082   4   3   4   1
  0.0037985303014286   4   3   4   3
  0.8369350548626686   4   4   1   1
  0.4983034805930533   4   4   2   2
 -0.0006130224414716   4   4   3   1
  0.2924905429600959   4   4   3   3
  0.0002402553233243   4   4   4   1
  0.0091911934297850   4   4   4   3
  0.6618263152202738   4   4   4   4
  0.3094183009148705   5   1   1   1
  0.0000798857552951   5   1   2   2
 -0.0063277935169367   5   1   3   1
  0.0001953012935093   5   1   3   3
 -0.0018132674712901   5   1   4   1
  0.0000707633972396   5   1   4   3
  0.0020818593876196   5   1   4   4
  0.0228810663383594   5   1   5   1
  0.0000265512326794   5   2   2   1
  0.0007214908084652   5   2   3   2
 -0.0029464052312248   5   2   4   2
  0.0288666256949443   5   2   5   2
 -0.0951749609330182   5   3   1   1
 -0.0231768835498323   5   3   2   2
  0.0002029615443918   5   3   3   1
 -0.0026251412489060   5   3   3   3
  0.0003554863809807   5   3   4   1
  0.0003899617696067   5   3   4   3
 -0.0305369348261365   5   3   4   4
 -0.0007423318388263   5   3   5   1
  0.0073718457126902   5   3   5   3
  0.0112033830161896   5   4   1   1
  0.0179328005813638   5   4   2   2
  0.0002812095977049   5   4   3   1
  0.0105239985191918   5   4   3   3
 -0.0051553475467770   5   4   4   1
  0.0047550782307454   5   4   4   3
  0.0257086929679405   5   4   4   4
 -0.0006156626492568   5   4   5   1
 -0.0001777281528556   5   4   5   3
  0.1172253522267021   5   4   5   4
  0.8742183658919288   5   5   1   1
  0.5265582732269691   5   5   2   2
 -0.0007752517248454   5   5   3   1
  0.2957952097032401   5   5   3   3
 -0.0016612849209743   5   5   4   1
  0.0095721872221718   5   5   4   3
  0.6410110399866530   5   5   4   4
  0.0026530417816918   5   5   5   1
 -0.0381868060635416   5   5   5   3
  0.0443930431353075   5   5   5   4
  0.6617059550003459   5   5   5   5
 -0.0223860664162891   6   1   1   1
 -0.0000758304286550   6   1   2   2
  0.0005520426717762   6   1   3   1
  0.0000105519173861   6   1   3   3
 -0.0016114403981738   6   1   4   1
 -0.0001252428753852   6   1   4   3
  0.0000633178675168   6   1   4   4
 -0.0018113746006290   6   1   5   1
  0.0000247103068610   6   1   5   3
  0.0007475302198207   6   1   5   4
 -0.0000492293953943   6   1   5   5
  0.0004708952681701   6   1   6   1
 -0.0000954434251436   6   2   2   1
 -0.0020078307548636   6   2   3   2
  0.0021414118581498   6   2   4   2
 -0.0182843012242284   6   2   5   2
  0.0157234234701574   6   2   6   2
  0.0530461326327444   6   3   1   1
  0.0218732633517154   6   3   2   2
 -0.0000224537991588   6   3   3   1
  0.0043930169611932   6   3   3   3
 -0.0001324121652582   6   3   4   1
  0.0001730388485593   6   3   4   3
  0.0385806865741451   6   3   4   4
  0.0000729079277162   6   3   5   1
 -0.0033442375863739   6   3   5   3
  0.0009356724749777   6   3   5   4
  0.0375009507454013   6   3   5   5
  0.0000133128952824   6   3   6   1
  0.0081320163842366   6   3   6   3
  0.0027600037586361   6   4   1   1
  0.0218104658595663   6   4   2   2
  0.0001226998030150   6   4   3   1
  0.0094211795148552   6   4   3   3
 -0.0015484331082426   6   4   4   1
  0.0081154950351808   6   4   4   3
  0.0199224336114088   6   4   4   4
 -0.0003761545724158   6   4   5   1
 -0.0001040493136769   6   4   5   3
  0.0901153256388942   6   4   5   4
  0.0383700610710244   6   4   5   5
  0.0001831705294029   6   4   6   1
  0.0004975991631101   6   4   6   3
  0.0895232046358001   6   4   6   4
 -0.0132756806599496   6   5   1   1
 -0.0160980743788639   6   5   2   2
  0.0000448822954691   6   5   3   1
  0.0002056477731835   6   5   3   3
  0.0004440546682621   6   5   4   1
  0.0006838644566544   6   5   4   3
  0.0412182478045458   6   5   4   4
 -0.0001867852962164   6   5   5   1
  0.0052684231656537   6   5   5   3
  0.0100248114075419   6   5   5   4
  0.0052032862404444   6   5   5   5
 -0.0000107443252060   6   5   6   1
  0.0030755066594462   6   5   6   3
  0.0026003115140980   6   5   6   4
  0.0397853461224156   6   5   6   5
  0.6817600716187432   6   6   1   1
  0.4710812664203347   6   6   2   2
 -0.0000953352977392   6   6   3   1
  0.2861624977944089   6   6   3   3
 -0.0002325487618633   6   6   4   1
  0.0078964327115295   6   6   4   3
  0.5929369901663664   6   6   4   4
  0.0001716528917252   6   6   5   1
 -0.0245058899669870   6   6   5   3
  0.0193489229388531   6   6   5   4
  0.5823998991517472   6   6   5   5
  0.0001040286051258   6   6   6   1
  0.0354225137912436   6   6   6   3
  0.0145683640449628   6   6   6   4
  0.0271950691497506   6   6   6   5
  0.5522534335935652   6   6   6   6
 -0.0681024629315084   7   1   1   1
 -0.0000801000139463   7   1   2   2
  0.0014298020381953   7   1   3   1
 -0.0000610029683454   7   1   3   3
 -0.0002091587032575   7   1   4   1
 -0.0000542714954048   7   1   4   3
 -0.0005447465634809   7   1   4   4
 -0.0051156035506485   7   1   5   1
  0.0001560178273540   7   1   5   3
  0.0003695826845503   7   1   5   4
 -0.0006155995755290   7   1   5   5
  0.0004921348635426   7   1   6   1
 -0.0000169572127179   7   1   6   3
  0.0001436689554312   7   1   6   4
  0.0000229140690964   7   1   6   5
 -0.0001037573151049   7   1   6   6
  0.0011728643943158   7   1   7   1
 -0.0000113158618311   7   2   2   1
  0.0054997014527818   7   2   3   2
  0.0004939836440303   7   2   4   2
  0.0010288838603795   7   2   5   2
 -0.0016227924821784   7   2   6   2
  0.0037954694308550   7   2   7   2
  0.0964512607096695   7   3   1   1
  0.0749416772394746   7   3   2   2
 -0.0000474269398577   7   3   3   1
  0.0417222415766937   7   3   3   3
 -0.0002405027663819   7   3   4   1
  0.0026981614473099   7   3   4   3
  0.0822581059817538   7   3   4   4
  0.0001564620287577   7   3   5   1
 -0.0020088633817464   7   3   5   3
  0.0089072355749121   7   3   5   4
  0.0849933996207600   7   3   5   5
  0.0000133830625959   7   3   6   1
  0.0032851195991688   7   3   6   3
  0.0078870707537254   7   3   6   4
  0.0001537676431786   7   3   6   5
  0.0773707249562201   7   3   6   6
 -0.0000382940373750   7   3   7   1
  0.0210718250379462   7   3   7   3
 -0.0067925715072117   7   4   1   1
  0.0019251658697144   7   4   2   2
 -0.0000197165709432   7   4   3   1
  0.0015581796844448   7   4   3   3
  0.0006773123361559   7   4   4   1
  0.0026398817168685   7   4   4   3
  0.0000475396717039   7   4   4   4
  0.0000044555574172   7   4   5   1
  0.0011209806078261   7   4   5   3
  0.0006678637391133   7   4   5   4
 -0.0001536637641361   7   4   5   5
 -0.0001108960039582   7   4   6   1
 -0.0002183542614755   7   4   6   3
  0.0033666444570661   7   4   6   4
  0.0000277805767040   7   4   6   5
  0.0006588818685734   7   4   6   6
 -0.0000337718859791   7   4   7   1
  0.0012858176975271   7   4   7   3
  0.0020552779029905   7   4   7   4
 -0.0750674204027980   7   5   1   1
 -0.0166391311438442   7   5   2   2
  0.0001581182022618   7   5   3   1
 -0.0017264894831419   7   5   3   3
  0.0004090257276548   7   5   4   1
  0.0004898704687252   7   5   4   3
 -0.0244209431832520   7   5   4   4
 -0.0005909764751137   7   5   5   1
  0.0057110097841654   7   5   5   3
 -0.0022952799687969   7   5   5   4
 -0.0295480280679305   7   5   5   5
  0.0000009619992037   7   5   6   1
 -0.0027051982766880   7   5   6   3
 -0.0013195599741614   7   5   6   4
  0.0026606420910858   7   5   6   5
 -0.0191777408124095   7   5   6   6
  0.0001179982466844   7   5   7   1
 -0.0013773344416366   7   5   7   3
  0.0010748643529128   7   5   7   4
  0.0045379945342135   7   5   7   5
  0.0268989485562608   7   6   1   1
  0.0090972077752039   7   6   2   2
 -0.0000177813629574   7   6   3   1
  0.0012665824903415   7   6   3   3
 -0.0000972003804532   7   6   4   1
  0.0003924722504072   7   6   4   3
  0.0174025669354218   7   6   4   4
  0.0000624916150999   7   6   5   1
 -0.0017818352897543   7   6   5   3
  0.0002571331120890   7   6   5   4
  0.0170764005177060   7   6   5   5
  0.0000067148971323   7   6   6   1
  0.0042453388227731   7   6   6   3
  0.0002254816364249   7   6   6   4
  0.0013315471759479   7   6   6   5
  0.0159946288420516   7   6   6   6
 -0.0000124029837881   7   6   7   1
  0.0009900188216006   7   6   7   3
  0.0001457614311270   7   6   7   4
 -0.0014217231373272   7   6   7   5
  0.0025143288676767   7   6   7   6
  0.2127776624894144   7   7   1   1
  0.1957520188864843   7   7   2   2
 -0.0000366771724656   7   7   3   1
  0.1693122252178180   7   7   3   3
 -0.0002305422672465   7   7   4   1
  0.0024041615490024   7   7   4   3
  0.2011299159836534   7   7   4   4
  0.0001261112261046   7   7   5   1
 -0.0016026318250257   7   7   5   3
  0.0082788068945185   7   7   5   4
  0.2036576357308433   7   7   5   5
  0.0000159389661051   7   7   6   1
  0.0020511577227939   7   7   6   3
  0.0072998903903034   7   7   6   4
  0.0000358261932783   7   7   6   5
  0.1970869428150976   7   7   6   6
 -0.0000321821856139   7   7   7   1
  0.0190075889009107   7   7   7   3
  0.0011410151007463   7   7   7   4
 -0.0010907526251423   7   7   7   5
  0.0007538983291046   7   7   7   6
  0.1414973888904965   7   7   7   7
 -0.0000766686780868   8   1   2   1
  0.0000212381412700   8   1   3   2
  0.0000111261409298   8   1   4   2
 -0.0000347737192208   8   1   5   2
  0.0001002876898010   8   1   6   2
  0.0000127123113265   8   1   7   2
  0.0000768860280937   8   1   8   1
 -0.2192574015651740   8   2   1   1
 -0.0976599455621424   8   2   2   2
  0.0000649312029303   8   2   3   1
 -0.0158193368361866   8   2   3   3
  0.0000610931484116   8   2   4   1
 -0.0011392486312823   8   2   4   3
 -0.1260313263341314   8   2   4   4
 -0.0000991816086936   8   2   5   1
  0.0183675939364019   8   2   5   3
  0.0015140095543133   8   2   5   4
 -0.1427975097612454   8   2   5   5
  0.0001015435069975   8   2   6   1
 -0.0162189017876947   8   2   6   3
 -0.0022772109270379   8   2   6   4
  0.0105082600989525   8   2   6   5
 -0.1096373472564244   8   2   6   6
  0.0000513448009785   8   2   7   1
 -0.0119509038448438   8   2   7   3
  0.0014113205517486   8   2   7   4
  0.0138332874320681   8   2   7   5
 -0.0082356221847305   8   2   7   6
 -0.0090652269955226   8   2   7   7
  0.0671826318638953   8   2   8   2
  0.0000175942270312   8   3   2   1
  0.0097319149679756   8   3   3   2
 -0.0001382080369047   8   3   4   2
  0.0090182220182660   8   3   5   2
 -0.0083318058305828   8   3   6   2
  0.0054526293357452   8   3   7   2
 -0.0000121247421373   8   3   8   1
  0.0170548907964206   8   3   8   3
  0.0000088754297681   8   4   2   1
  0.0001985959801857   8   4   3   2
 -0.0049008538774812   8   4   4   2
  0.0031685763471547   8   4   5   2
 -0.0018640341434061   8   4   6   2
  0.0002962316275531   8   4   7   2
 -0.0000094588617648   8   4   8   1
  0.0012250334425472   8   4   8   3
  0.0039534081295557   8   4   8   4
 -0.0000195487857749   8   5   2   1
  0.0025911604667569   8   5   3   2
  0.0026765157952774   8   5   4   2
 -0.0196352049294113   8   5   5   2
  0.0119682833540171   8   5   6   2
  0.0015187794455047   8   5   7   2
  0.0000252453821585   8   5   8   1
 -0.0039503587525282   8   5   8   3
 -0.0022755710464815   8   5   8   4
  0.0148514331813432   8   5   8   5
  0.0000912378630697   8   6   2   1
 -0.0043634950991996   8   6   3   2
 -0.0013182550344469   8   6   4   2
  0.0105216069168851   8   6   5   2
 -0.0074774747198446   8   6   6   2
 -0.0024731500689865   8   6   7   2
 -0.0000956922281591   8   6   8   1
 -0.0014887040911669   8   6   8   3
  0.0010022397116957   8   6   8   4
 -0.0086775444605273   8   6   8   5
  0.0077863021346553   8   6   8   6
  0.0000104177750602   8   7   2   1
  0.0045400964587510   8   7   3   2
  0.0001878628570196   8   7   4   2
  0.0055958121866363   8   7   5   2
 -0.0047291169526488   8   7   6   2
  0.0029259811432808   8   7   7   2
 -0.0000079689161921   8   7   8   1
  0.0079843753424841   8   7   8   3
  0.0007018983208101   8   7   8   4
 -0.0026535724799918   8   7   8   5
 -0.0001364678294229   8   7   8   6
  0.0044498021059156   8   7   8   7
  0.4962875885726588   8   8   1   1
  0.3887635865062876   8   8   2   2
 -0.0000583598268590   8   8   3   1
  0.2659455234741138   8   8   3   3
 -0.0002757632729422   8   8   4   1
  0.0067447097588865   8   8   4   3
  0.4078456515543157   8   8   4   4
  0.0000756051704074   8   8   5   1
 -0.0159813590916753   8   8   5   3
  0.0140172192735957   8   8   5   4
  0.4273007440092326   8   8   5   5
 -0.0000738919675792   8   8   6   1
  0.0119389518873617   8   8   6   3
  0.0160642182649255   8   8   6   4
 -0.0106583139037018   8   8   6   5
  0.3892834489320162   8   8   6   6
 -0.0000604681578976   8   8   7   1
  0.0622969578673028   8   8   7   3
  0.0020522569471446   8   8   7   4
 -0.0115643774207970   8   8   7   5
  0.0049552709658536   8   8   7   6
  0.1861947511545698   8   8   7   7
 -0.0581412553844406   8   8   8   2
  0.3482359660858428   8   8   8   8
  0.0074583033813687   9   1   1   1
  0.0012284755881708   9   1   2   2
  0.0017908980028691   9   1   3   1
  0.0008264650997271   9   1   3   3
 -0.0414251039624976   9   1   4   1
 -0.0027302770536649   9   1   4   3
 -0.0016438636398199   9   1   4   4
 -0.0030246069789475   9   1   5   1
 -0.0009322381026184   9   1   5   3
  0.0184620198388388   9   1   5   4
  0.0047033087173371   9   1   5   5
  0.0057681825681390   9   1   6   1
  0.0004094431216364   9   1   6   3
  0.0059622682454593   9   1   6   4
 -0.0014588039467863   9   1   6   5
  0.0006440538708143   9   1   6   6
  0.0026063518649687   9   1   7   1
  0.0007740393301329   9   1   7   3
 -0.0023810850156525   9   1   7   4
 -0.0011885732331155   9   1   7   5
  0.0002860376091997   9   1   7   6
  0.0007533323421541   9   1   7   7
 -0.0001457517767962   9   1   8   2
  0.0009110892462196   9   1   8   8
  0.1317412367732192   9   1   9   1
 -0.0000026439144246   9   2   2   1
 -0.0000199841473218   9   2   3   2
  0.0013354514447943   9   2   4   2
  0.0000788442342007   9   2   5   2
 -0.0001276970034126   9   2   6   2
 -0.0000450386673249   9   2   7   2
  0.0000026940324365   9   2   8   1
  0.0000523102026578   9   2   8   3
 -0.0011070361963380   9   2   8   4
 -0.0000390795526698   9   2   8   5
  0.0001148580335739   9   2   8   6
  0.0000730489806972   9   2   8   7
  0.0015411888132609   9   2   9   2
  0.0163879177240079   9   3   1   1
  0.0003615735050295   9   3   2   2
  0.0000563210741955   9   3   3   1
  0.0001126696927629   9   3   3   3
 -0.0026800222313331   9   3   4   1
 -0.0002925517951211   9   3   4   3
  0.0002343351991150   9   3   4   4
  0.0000339923754780   9   3   5   1
 -0.0002823600810869   9   3   5   3
  0.0010806028675587   9   3   5   4
  0.0008932704321537   9   3   5   5
  0.0003791438708656   9   3   6   1
  0.0001155691520897   9   3   6   3
 -0.0000315310100660   9   3   6   4
 -0.0004724936796167   9   3   6   5
  0.0002133992005146   9   3   6   6
  0.0001188538643441   9   3   7   1
  0.0001008184734172   9   3   7   3
 -0.0002519829875079   9   3   7   4
 -0.0002492762193459   9   3   7   5
  0.0000962612413229   9   3   7   6
  0.0000898382526097   9   3   7   7
 -0.0002818354888995   9   3   8   2
  0.0003176806953588   9   3   8   8
  0.0090530116296205   9   3   9   1
  0.0016830739522043   9   3   9   3
 -0.3829264230027916   9   4   1   1
 -0.0079914734699461   9   4   2   2
  0.0015498405587448   9   4   3   1
 -0.0014842551224783   9   4   3   3
 -0.0006664406140180   9   4   4   1
 -0.0002708220385017   9   4   4   3
 -0.0121909747400818   9   4   4   4
 -0.0059549741394048   9   4   5   1
  0.0051630497034786   9   4   5   3
  0.0026884074713276   9   4   5   4
 -0.0163363600711437   9   4   5   5
 -0.0000451943698301   9   4   6   1
 -0.0017103478875607   9   4   6   3
  0.0012522199357060   9   4   6   4
  0.0072788362474948   9   4   6   5
 -0.0047864179186417   9   4   6   6
  0.0013007286508706   9   4   7   1
 -0.0011510632623887   9   4   7   3
  0.0001789230792498   9   4   7   4
  0.0039134163751350   9   4   7   5
 -0.0012937017402589   9   4   7   6
 -0.0009141443450246   9   4   7   7
  0.0072762531575645   9   4   8   2
 -0.0069968504191903   9   4   8   8
  0.0045441016212063   9   4   9   1
 -0.0012554276718269   9   4   9   3
  0.0488291657608109   9   4   9   4
 -0.0279838749661920   9   5   1   1
  0.0009894524995990   9   5   2   2
 -0.0002489450998479   9   5   3   1
  0.0005709191000374   9   5   3   3
  0.0078772658306952   9   5   4   1
  0.0009568217477701   9   5   4   3
  0.0012695057482153   9   5   4   4
  0.0002169014599515   9   5   5   1
  0.0003600114520062   9   5   5   3
  0.0080162851964280   9   5   5   4
  0.0020661947417589   9   5   5   5
 -0.0011151488659430   9   5   6   1
 -0.0003002987811102   9   5   6   3
  0.0096448870280621   9   5   6   4
  0.0012093542943646   9   5   6   5
  0.0001087340251497   9   5   6   6
 -0.0004182433130813   9   5   7   1
  0.0004797507614926   9   5   7   3
  0.0004664148939571   9   5   7   4
  0.0001497333652271   9   5   7   5
 -0.0003345681511862   9   5   7   6
  0.0004595168449846   9   5   7   7
  0.0004091125564466   9   5   8   2
  0.0006635068642678   9   5   8   8
 -0.0265487390955199   9   5   9   1
 -0.0049380169863784   9   5   9   3
  0.0014222809884978   9   5   9   4
  0.0165620073347943   9   5   9   5
  0.0548125648615550   9   6   1   1
  0.0038869671536344   9   6   2   2
  0.0000453465021044   9   6   3   1
  0.0016565100933187   9   6   3   3
 -0.0056684051145742   9   6   4   1
 -0.0012073083693996   9   6   4   3
  0.0027324770816911   9   6   4   4
  0.0003474352399625   9   6   5   1
 -0.0015661728843386   9   6   5   3
  0.0258864018965627   9   6   5   4
  0.0100956718583914   9   6   5   5
  0.0007986336526208   9   6   6   1
  0.0002412763902713   9   6   6   3
  0.0196770792787897   9   6   6   4
 -0.0014119414298896   9   6   6   5
  0.0006387328424986   9   6   6   6
  0.0001901352293053   9   6   7   1
  0.0014460450822256   9   6   7   3
 -0.0017036117494774   9   6   7   4
 -0.0017966520628011   9   6   7   5
 -0.0000428724243227   9   6   7   6
  0.0013662458927513   9   6   7   7
 -0.0012586658899712   9   6   8   2
  0.0030263801611848   9   6   8   8
  0.0196503700596119   9   6   9   1
  0.0036739300421528   9   6   9   3
 -0.0045697306729401   9   6   9   4
 -0.0060414417679144   9   6   9   5
  0.0195402374344761   9   6   9   6
  0.0235816748757565   9   7   1   1
  0.0004404348107738   9   7   2   2
 -0.0000047375833226   9   7   3   1
  0.0001158614070147   9   7   3   3
 -0.0019971605315874   9   7   4   1
 -0.0001912931407836   9   7   4   3
  0.0005124590889546   9   7   4   4
  0.0002067282549907   9   7   5   1
 -0.0003273996417026   9   7   5   3
 -0.0000877193256151   9   7   5   4
  0.0009151695267468   9   7   5   5
  0.0002864040467006   9   7   6   1
  0.0001458323967789   9   7   6   3
 -0.0007494915962022   9   7   6   4
 -0.0005558181925404   9   7   6   5
  0.0003404274176033   9   7   6   6
  0.0000499323105821   9   7   7   1
  0.0000815916651720   9   7   7   3
 -0.0001530812218451   9   7   7   4
 -0.0002557889429253   9   7   7   5
  0.0001232657749774   9   7   7   6
  0.0000685847316481   9   7   7   7
 -0.0004002552054787   9   7   8   2
  0.0003968894838607   9   7   8   8
  0.0066540821670579   9   7   9   1
  0.0013007531664112   9   7   9   3
 -0.0023980431580862   9   7   9   4
 -0.0039109736571837   9   7   9   5
  0.0024927493061742   9   7   9   6
  0.0010620153806891   9   7   9   7
  0.0000027442815817   9   8   2   1
  0.0000317778744735   9   8   3   2
 -0.0012169024386244   9   8   4   2
 -0.0000496163218994   9   8   5   2
  0.0001112380051000   9   8   6   2
  0.0000537313127803   9   8   7   2
 -0.0000027816819754   9   8   8   1
 -0.0000291302430979   9   8   8   3
  0.0010326054935554   9   8   8   4
  0.0000276552084737   9   8   8   5
 -0.0001057518332931   9   8   8   6
 -0.0000533847411955   9   8   8   7
 -0.0015010526310066   9   8   9   2
  0.0014632900396670   9   8   9   8
  2.5706007614981696   9   9   1   1
  0.5933199525047690   9   9   2   2
 -0.0047230425441875   9   9   3   1
  0.3054642336123966   9   9   3   3
 -0.0021342661649160   9   9   4   1
  0.0073523102312141   9   9   4   3
  0.7970694327167347   9   9   4   4
  0.0187600047159446   9   9   5   1
 -0.0775393935928430   9   9   5   3
  0.0155741579185756   9   9   5   4
  0.8139737830333925   9   9   5   5
  0.0018806434143361   9   9   6   1
  0.0507941366581167   9   9   6   3
  0.0071977981354373   9   9   6   4
 -0.0002176494801409   9   9   6   5
  0.6847107897712055   9   9   6   6
 -0.0039193962160467   9   9   7   1
  0.0924709350403955   9   9   7   3
 -0.0057639369110768   9   9   7   4
 -0.0611048925861118   9   9   7   5
  0.0247611763693636   9   9   7   6
  0.2095198533712636   9   9   7   7
 -0.2085836482243930   9   9   8   2
  0.4858569997195276   9   9   8   8
  0.0003238137264758   9   9   9   1
  0.0087021227323178   9   9   9   3
 -0.2153114095242828   9   9   9   4
 -0.0144516440249592   9   9   9   5
  0.0304535940288564   9   9   9   6
  0.0127165852658600   9   9   9   7
  2.0479134792059512   9   9   9   9
 -0.9269933116615715  10   1   1   1
 -0.0001149203631070  10   1   2   2
  0.0183748312262282  10   1   3   1
 -0.0006335074164192  10   1   3   3
  0.0082236560244666  10   1   4   1
 -0.0000210608719830  10   1   4   3
 -0.0063291337319073  10   1   4   4
 -0.0667188756624336  10   1   5   1
  0.0022725412303621  10   1   5   3
  0.0006469199053595  10   1   5   4
 -0.0081647584996500  10   1   5   5
  0.0048940117792767  10   1   6   1
 -0.0002188209867102  10   1   6   3
  0.0008225121370817  10   1   6   4
  0.0006557034439991  10   1   6   5
 -0.0003129862120322  10   1   6   6
  0.0147720526911911  10   1   7   1
 -0.0005161278029911  10   1   7   3
  0.0001566487670550  10   1   7   4
  0.0018387140068362  10   1   7   5
 -0.0001956583904704  10   1   7   6
 -0.0004252197600687  10   1   7   7
  0.0001226103859655  10   1   8   2
 -0.0001175852089462  10   1   8   8
 -0.0004027919533206  10   1   9   1
 -0.0007979363160560  10   1   9   3
  0.0195602939579214  10   1   9   4
  0.0013008404839070  10   1   9   5
 -0.0025911120722577  10   1   9   6
 -0.0011956706522138  10   1   9   7
 -0.0623517825979569  10   1   9   9
  0.1955511726671380  10   1  10   1
  0.0004042538050270  10   2   2   1
 -0.0014446750936258  10   2   3   2
 -0.0011161173954503  10   2   4   2
  0.0069529148002869  10   2   5   2
 -0.0053355221399133  10   2   6   2
 -0.0009714189797415  10   2   7   2
 -0.0004045991198739  10   2   8   1
  0.0019989353877660  10   2   8   3
  0.0010274807861025  10   2   8   4
 -0.0056457493029303  10   2   8   5
  0.0043897888937903  10   2   8   6
  0.0013588521871495  10   2   8   7
 -0.0000435178754431  10   2   9   2
  0.0000479955099891  10   2   9   8
  0.0081331838782711  10   2  10   2
  0.0972282627303809  10   3   1   1
  0.0007774714430365  10   3   2   2
 -0.0005437735098782  10   3   3   1
  0.0002708402885664  10   3   3   3
 -0.0004870063612577  10   3   4   1
 -0.0000652614588005  10   3   4   3
  0.0047236543609956  10   3   4   4
  0.0020386783953243  10   3   5   1
 -0.0009790629413855  10   3   5   3
 -0.0006587361477862  10   3   5   4
  0.0039375958003713  10   3   5   5
 -0.0000625916807997  10   3   6   1
  0.0002216581042359  10   3   6   3
 -0.0010740619900716  10   3   6   4
  0.0006441763064521  10   3   6   5
  0.0024094605836069  10   3   6   6
 -0.0004318282209983  10   3   7   1
  0.0002188241433900  10   3   7   3
 -0.0001590640831491  10   3   7   4
 -0.0008194578801799  10   3   7   5
  0.0001214941959467  10   3   7   6
  0.0001757728884712  10   3   7   7
 -0.0008846433341867  10   3   8   2
  0.0008423667117967  10   3   8   8
  0.0008067992754229  10   3   9   1
  0.0005766903785097  10   3   9   3
 -0.0101687975121782  10   3   9   4
 -0.0013602640139780  10   3   9   5
  0.0013455827548939  10   3   9   6
  0.0007435046806530  10   3   9   7
  0.0522154402404675  10   3   9   9
 -0.0064523380279835  10   3  10   1
  0.0028322383362921  10   3  10   3
  0.0467095621806211  10   4   1   1
  0.0026208249993817  10   4   2   2
 -0.0004711129093420  10   4   3   1
  0.0011641339221944  10   4   3   3
  0.0047925028047008  10   4   4   1
  0.0002648118069388  10   4   4   3
  0.0045379261010971  10   4   4   4
  0.0013211659793727  10   4   5   1
 -0.0008292808087902  10   4   5   3
  0.0146726119931148  10   4   5   4
  0.0073230537563349  10   4   5   5
 -0.0007234729798871  10   4   6   1
  0.0000083057576175  10   4   6   3
  0.0129917701512777  10   4   6   4
  0.0007276406945749  10   4   6   5
  0.0018865194421353  10   4   6   6
 -0.0005171542286894  10   4   7   1
  0.0009902564739662  10   4   7   3
 -0.0003085992017101  10   4   7   4
 -0.0009706731756606  10   4   7   5
 -0.0001719752978860  10   4   7   6
  0.0009228148448500  10   4   7   7
 -0.0006896433597544  10   4   8   2
  0.0020906793247636  10   4   8   8
 -0.0164217691379224  10   4   9   1
 -0.0029740760565038  10   4   9   3
 -0.0061175031606983  10   4   9   4
  0.0119031948789825  10   4   9   5
  0.0006634836988200  10   4   9   6
 -0.0022912796906421  10   4   9   7
  0.0275731201229754  10   4   9   9
 -0.0029585187349992  10   4  10   1
  0.0008043125372847  10   4  10   3
  0.0112215798002426  10   4  10   4
 -0.3713433359587856  10   5   1   1
 -0.0063492963615464  10   5   2   2
  0.0020036973995749  10   5   3   1
 -0.0013000356386885  10   5   3   3
  0.0014155225621328  10   5   4   1
  0.0000825731200644  10   5   4   3
 -0.0153623449953799  10   5   4   4
 -0.0073964563793360  10   5   5   1
  0.0047004069670244  10   5   5   3
  0.0022300524964804  10   5   5   4
 -0.0170181849003677  10   5   5   5
  0.0004787878717738  10   5   6   1
 -0.0013055099629035  10   5   6   3
  0.0026356837448467  10   5   6   4
  0.0014783683234454  10   5   6   5
 -0.0080999119077823  10   5   6   6
  0.0015948329651889  10   5   7   1
 -0.0010269639101237  10   5   7   3
  0.0004713707721918  10   5   7   4
  0.0037732508092708  10   5   7   5
 -0.0008549417339273  10   5   7   6
 -0.0008250105726895  10   5   7   7
  0.0063208394001095  10   5   8   2
 -0.0060135702875838  10   5   8   8
 -0.0017287906070554  10   5   9   1
 -0.0019559268038544  10   5   9   3
  0.0390037352044254  10   5   9   4
  0.0041907059626457  10   5   9   5
 -0.0052792231965783  10   5   9   6
 -0.0026370098162862  10   5   9   7
 -0.1948885373692529  10   5   9   9
  0.0233511377742643  10   5  10   1
 -0.0103329314110367  10   5  10   3
 -0.0037265141836828  10   5  10   4
  0.0397111848800127  10   5  10   5
  0.0262463715263904  10   6   1   1
 -0.0045719980632025  10   6   2   2
 -0.0000642267636025  10   6   3   1
 -0.0002341547165829  10   6   3   3
 -0.0007216540837294  10   6   4   1
 -0.0004778210202999  10   6   4   3
  0.0113133571048016  10   6   4   4
  0.0004998157893813  10   6   5   1
  0.0006178985905399  10   6   5   3
 -0.0000901617128098  10   6   5   4
  0.0015493080284778  10   6   5   5
  0.0005497105762791  10   6   6   1
 -0.0004801664009237  10   6   6   3
 -0.0030584948144938  10   6   6   4
  0.0087170672253679  10   6   6   5
  0.0065878264065672  10   6   6   6
 -0.0000487366030007  10   6   7   1
 -0.0001583589160196  10   6   7   3
 -0.0005650821193183  10   6   7   4
  0.0001721382590722  10   6   7   5
 -0.0005781846397293  10   6   7   6
 -0.0001083673780403  10   6   7   7
  0.0035599577834127  10   6   8   2
 -0.0035383681958393  10   6   8   8
  0.0022992386613579  10   6   9   1
  0.0005243924964307  10   6   9   3
 -0.0025002919398488  10   6   9   4
 -0.0018671408190110  10   6   9   5
  0.0002892206998131  10   6   9   6
  0.0004913468717555  10   6   9   7
  0.0410036086087680  10   6   9   9
 -0.0017101481927437  10   6  10   1
  0.0018624703384091  10   6  10   3
 -0.0004479141077351  10   6  10   4
 -0.0026986680635566  10   6  10   5
  0.0103383115859640  10   6  10   6
  0.0777804040092992  10   7   1   1
  0.0007510296209024  10   7   2   2
 -0.0004332833033393  10   7   3   1
  0.0002292184405460  10   7   3   3
 -0.0005225507166870  10   7   4   1
 -0.0000402826903751  10   7   4   3
  0.0033858733370902  10   7   4   4
  0.0016289414163496  10   7   5   1
 -0.0007952438962288  10   7   5   3
 -0.0010052099836781  10   7   5   4
  0.0029856232914933  10   7   5   5
 -0.0000487391409109  10   7   6   1
  0.0001988257638374  10   7   6   3
 -0.0011839203683674  10   7   6   4
  0.0002046180943243  10   7   6   5
  0.0017286112012309  10   7   6   6
 -0.0003398584791993  10   7   7   1
  0.0001648526367757  10   7   7   3
 -0.0000970188147947  10   7   7   4
 -0.0006444883057489  10   7   7   5