 &FCI NORB=  10,NELEC=10,MS2=0,
  ORBSYM=1,1,1,1,1,1,1,1,1,1,
  ISYM=1,
 &END
  0.8369682613830576   1   1   1   1
 -0.0124623969526679   2   1   1   1
  0.0107169640541510   2   1   2   1
  0.4708418995171760   2   2   1   1
 -0.0088727879761537   2   2   2   1
  0.9185686661177627   2   2   2   2
  0.0016953625605416   3   1   1   1
 -0.0012620741945997   3   1   2   1
 -0.0078551284800795   3   1   2   2
  0.0005360162029786   3   1   3   1
 -0.0139024001350124   3   2   1   1
 -0.0016693346398228   3   2   2   1
 -0.0161605104681765   3   2   2   2
 -0.0010977986691393   3   2   3   1
  0.0121501496299078   3   2   3   2
  0.2632059730600682   3   3   1   1
 -0.0113956040848946   3   3   2   1
  0.4981881308433244   3   3   2   2
  0.0011888453219259   3   3   3   1
 -0.0157929701966819   3   3   3   2
  0.9243314021568572   3   3   3   3
 -0.0011427540885582   4   1   1   1
  0.0002561757056036   4   1   2   1
  0.0017349959724844   4   1   2   2
 -0.0000893500920380   4   1   3   1
  0.0001060384456298   4   1   3   2
  0.0016392134802610   4   1   3   3
  0.0000344870031217   4   1   4   1
  0.0028696763756554   4   2   1   1
  0.0004548475336001   4   2   2   1
  0.0023536792893170   4   2   2   2
  0.0000415048030467   4   2   3   1
 -0.0013279928284950   4   2   3   2
 -0.0076318791563379   4   2   3   3
 -0.0000844298847455   4   2   4   1
  0.0006218190816747   4   2   4   2
 -0.0041338920570845   4   3   1   1
  0.0008510249918405   4   3   2   1
 -0.0152483351772084   4   3   2   2
  0.0004269103509103   4   3   3   1
 -0.0015601579882611   4   3   3   2
 -0.0164040235426754   4   3   3   3
  0.0002207606632760   4   3   4   1
 -0.0013118748885027   4   3   4   2
  0.0122565619274268   4   3   4   3
  0.1787758366891167   4   4   1   1
 -0.0029416223427331   4   4   2   1
  0.2734680991351883   4   4   2   2
  0.0023546423757950   4   4   3   1
 -0.0150087272946224   4   4   3   2
  0.5000087666416007   4   4   3   3
 -0.0011445696861433   4   4   4   1
  0.0022783355030376   4   4   4   2
 -0.0163732112229179   4   4   4   3
  0.9247228685091740   4   4   4   4
  0.0003417482349028   5   1   1   1
 -0.0000706002865120   5   1   2   1
 -0.0003145694548214   5   1   2   2
  0.0000187646259664   5   1   3   1
 -0.0000128604446253   5   1   3   2
 -0.0004214675458604   5   1   3   3
 -0.0000057898826523   5   1   4   1
  0.0000103075557002   5   1   4   2
 -0.0000136832484001   5   1   4   3
 -0.0002673125874780   5   1   4   4
  0.0000022116204968   5   1   5   1
 -0.0009640013750100   5   2   1   1
 -0.0000732830330033   5   2   2   1
 -0.0014487404809964   5   2   2   2
  0.0000094077724314   5   2   3   1
  0.0002672467468796   5   2   3   2
  0.0016906942387928   5   2   3   3
  0.0000066264583688   5   2   4   1
 -0.0000996888714902   5   2   4   2
  0.0001318625886830   5   2   4   3
  0.0016840031948138   5   2   4   4
 -0.0000056308785537   5   2   5   1
  0.0000417840493850   5   2   5   2
  0.0009327832081089   5   3   1   1
 -0.0001543719179365   5   3   2   1
  0.0031349974417816   5   3   2   2
 -0.0001104645914047   5   3   3   1
  0.0004487096932570   5   3   3   2
  0.0024013652973520   5   3   3   3
  0.0000083517827032   5   3   4   1
  0.0000521201416769   5   3   4   2
 -0.0013311883539721   5   3   4   3
 -0.0075999492150718   5   3   4   4
  0.0000173398892665   5   3   5   1
 -0.0000990683117148   5   3   5   2
  0.0006286770843251   5   3   5   3
 -0.0015350489096584   5   4   1   1
  0.0001932035010934   5   4   2   1
 -0.0045067698076598   5   4   2   2
 -0.0001542870175899   5   4   3   1
  0.0010278271486024   5   4   3   2
 -0.0153330046180573   5   4   3   3
 -0.0000562107039877   5   4   4   1
  0.0004472400342318   5   4   4   2
 -0.0015507800999023   5   4   4   3
 -0.0164218014043179   5   4   4   4
 -0.0000642151188701   5   4   5   1
  0.0002632305114756   5   4   5   2
 -0.0013297936954614   5   4   5   3
  0.0122636289105670   5   4   5   4
  0.1352837416145349   5   5   1   1
 -0.0008394514304543   5   5   2   1
  0.1836525822916119   5   5   2   2
  0.0006905979204052   5   5   3   1
 -0.0043978764366642   5   5   3   2
  0.2741664670252912   5   5   3   3
 -0.0008504505576442   5   5   4   1
  0.0030753461176889   5   5   4   2
 -0.0153129611961797   5   5   4   3
  0.5001326138848036   5   5   4   4
  0.0003666289249590   5   5   5   1
 -0.0014437444524834   5   5   5   2
  0.0023952426847425   5   5   5   3
 -0.0164196933354917   5   5   5   4
  0.9247539393276406   5   5   5   5
 -0.0000940292844438   6   1   1   1
  0.0000183075297046   6   1   2   1
  0.0000672444542092   6   1   2   2
 -0.0000048478617535   6   1   3   1
  0.0000043770878420   6   1   3   2
  0.0000868070029734   6   1   3   3
  0.0000012771150620   6   1   4   1
 -0.0000017451437320   6   1   4   2
  0.0000005012684962   6   1   4   3
  0.0000818447155334   6   1   4   4
 -0.0000003794697411   6   1   5   1
  0.0000006323320848   6   1   5   2
 -0.0000017468180867   6   1   5   3
  0.0000048004810093   6   1   5   4
  0.0000528700867253   6   1   5   5
  0.0000001455903127   6   1   6   1
  0.0002665289383868   6   2   1   1
  0.0000153222427516   6   2   2   1
  0.0004384275362342   6   2   2   2
 -0.0000015577560619   6   2   3   1
 -0.0000759230442982   6   2   3   2
 -0.0002877028430925   6   2   3   3
 -0.0000006884795882   6   2   4   1
  0.0000205592279768   6   2   4   2
 -0.0000175187884044   6   2   4   3
 -0.0004416394885822   6   2   4   4
  0.0000005574998570   6   2   5   1
 -0.0000067440831807   6   2   5   2
  0.0000122828585870   6   2   5   3
 -0.0000175062475583   6   2   5   4
 -0.0002839738692329   6   2   5   5
 -0.0000003753503872   6   2   6   1
  0.0000027334675349   6   2   6   2
 -0.0003317808265965   6   3   1   1
  0.0000487698126902   6   3   2   1
 -0.0010546634170876   6   3   2   2
  0.0000200970027011   6   3   3   1
 -0.0000622222265131   6   3   3   2
 -0.0014720885341403   6   3   3   3
 -0.0000060045719052   6   3   4   1
  0.0000084489858729   6   3   4   2
  0.0002674901749647   6   3   4   3
  0.0016851730287854   6   3   4   4
 -0.0000007174198848   6   3   5   1
  0.0000081159466775   6   3   5   2
 -0.0001003433909082   6   3   5   3
  0.0001339230535477   6   3   5   4
  0.0016846930322623   6   3   5   5
  0.0000012280454006   6   3   6   1
 -0.0000067195942667   6   3   6   2
  0.0000423974778176   6   3   6   3
  0.0003659792263055   6   4   1   1
 -0.0000397300707519   6   4   2   1
  0.0010126033227902   6   4   2   2
  0.0000275395668455   6   4   3   1
 -0.0001889419441829   6   4   3   2
  0.0031513872051733   6   4   3   3
  0.0000180686332300   6   4   4   1
 -0.0001183202051514   6   4   4   2
  0.0004481031845185   6   4   4   3
  0.0024047959345520   6   4   4   4
 -0.0000010009276797   6   4   5   1
  0.0000084487678912   6   4   5   2
  0.0000527054890792   6   4   5   3
 -0.0013312345721727   6   4   5   4
 -0.0075969187434566   6   4   5   5
 -0.0000045529868479   6   4   6   1
  0.0000203608686504   6   4   6   2
 -0.0001002866907163   6   4   6   3
  0.0006291398029110   6   4   6   4
 -0.0007219529700043   6   5   1   1
  0.0000433320270465   6   5   2   1
 -0.0016438355720572   6   5   2   2
 -0.0000402586618135   6   5   3   1
  0.0002403010062536   6   5   3   2
 -0.0045316585619465   6   5   3   3
  0.0000509399395554   6   5   4   1
 -0.0001884403592126   6   5   4   2
  0.0010422676217172   6   5   4   3
 -0.0153383396276206   6   5   4   4
  0.0000099912242131   6   5   5   1
 -0.0000608294486261   6   5   5   2
  0.0004479904197236   6   5   5   3
 -0.0015499494541046   6   5   5   4
 -0.0164231599268416   6   5   5   5
  0.0000168986532195   6   5   6   1
 -0.0000751283226748   6   5   6   2
  0.0002671436230035   6   5   6   3
 -0.0013311394200908   6   5   6   4
  0.0122641224404178   6   5   6   5
  0.1088220386891712   6   6   1   1
 -0.0002710430886757   6   6   2   1
  0.1380965548290119   6   6   2   2
  0.0002239509045819   6   6   3   1
 -0.0015817949334039   6   6   3   2
  0.1839880155693921   6   6   3   3
 -0.0002750400261928   6   6   4   1
  0.0009860208783125   6   6   4   2
 -0.0045226861940574   6   6   4   3
  0.2742147612869689   6   6   4   4
  0.0002417894213819   6   6   5   1
 -0.0010417868216843   6   6   5   2
  0.0031465768988548   6   6   5   3
 -0.0153369164233188   6   6   5   4
  0.5001414760889691   6   6   5   5
 -0.0001009532618937   6   6   6   1
  0.0004385702801705   6   6   6   2
 -0.0014714408677555   6   6   6   3
  0.0024044040760615   6   6   6   4
 -0.0164231599268439   6   6   6   5
  0.9247539393276476   6   6   6   6
  0.0000274588456660   7   1   1   1
 -0.0000047818590064   7   1   2   1
 -0.0000153219030269   7   1   2   2
  0.0000012691336894   7   1   3   1
 -0.0000013012569809   7   1   3   2
 -0.0000199386193153   7   1   3   3
 -0.0000003435923028   7   1   4   1
  0.0000004926441681   7   1   4   2
 -0.0000004046774035   7   1   4   3
 -0.0000167299848147   7   1   4   4
  0.0000000874170759   7   1   5   1
 -0.0000001113610584   7   1   5   2
  0.0000002281602125   7   1   5   3
 -0.0000004624821989   7   1   5   4
 -0.0000180543780133   7   1   5   5
 -0.0000000263112672   7   1   6   1
  0.0000000451004706   7   1   6   2
 -0.0000001141096026   7   1   6   3
  0.0000005049955477   7   1   6   4
 -0.0000014465550839   7   1   6   5
 -0.0000113450176989   7   1   6   6
  0.0000000103201549   7   1   7   1
 -0.0000723461310340   7   2   1   1
 -0.0000037621414846   7   2   2   1
 -0.0001205878702846   7   2   2   2
  0.0000003421221867   7   2   3   1
  0.0000198703230625   7   2   3   2
  0.0000585995985776   7   2   3   3
  0.0000002121200000   7   2   4   1
 -0.0000053618567076   7   2   4   2
  0.0000057568586324   7   2   4   3
  0.0000892491507280   7   2   4   4
 -0.0000000866306367   7   2   5   1
  0.0000014634998877   7   2   5   2
 -0.0000021113262395   7   2   5   3
  0.0000010140659516   7   2   5   4
  0.0000887665649289   7   2   5   5
  0.0000000416881049   7   2   6   1
 -0.0000004529056376   7   2   6   2
  0.0000007775262560   7   2   6   3
 -0.0000021068226641   7   2   6   4
  0.0000057797451713   7   2   6   5
  0.0000574345699981   7   2   6   6
 -0.0000000263091325   7   2   7   1
  0.0000001821149539   7   2   7   2
  0.0000942877650915   7   3   1   1
 -0.0000131691472978   7   3   2   1
  0.0002916211389906   7   3   2   2
 -0.0000044548874662   7   3   3   1
  0.0000117125687000   7   3   3   2
  0.0004457199127051   7   3   3   3
  0.0000011813092360   7   3   4   1
 -0.0000010453731914   7   3   4   2
 -0.0000761769911403   7   3   4   3
 -0.0002851665490187   7   3   4   4
 -0.0000000462804704   7   3   5   1
 -0.0000009337318270   7   3   5   2
  0.0000206500704287   7   3   5   3
 -0.0000178858874992   7   3   5   4
 -0.0004427467684679   7   3   5   5
 -0.0000000908265719   7   3   6   1
  0.0000006921162628   7   3   6   2
 -0.0000068156794660   7   3   6   3
  0.0000124441384055   7   3   6   4
 -0.0000178843910910   7   3   6   5
 -0.0002849159252356   7   3   6   6
  0.0000000862897505   7   3   7   1
 -0.0000004517932355   7   3   7   2
  0.0000027786288866   7   3   7   3
 -0.0001399107136223   7   4   1   1
  0.0000123961263471   7   4   2   1
 -0.0003583568788063   7   4   2   2
 -0.0000090395624774   7   4   3   1
  0.0000600906098538   7   4   3   2
 -0.0010602657504257   7   4   3   3
 -0.0000019006986419   7   4   4   1
  0.0000202668160995   7   4   4   2
 -0.0000612791585290   7   4   4   3
 -0.0014735290802075   7   4   4   4
  0.0000010994953585   7   4   5   1
 -0.0000064759516213   7   4   5   2
  0.0000084263370031   7   4   5   3
  0.0002674415347258   7   4   5   4
  0.0016846536624028   7   4   5   5
  0.0000002400980151   7   4   6   1
 -0.0000009330063682   7   4   6   2
  0.0000082331924457   7   4   6   3
 -0.0001003744099332   7   4   6   4
  0.0001340674432742   7   4   6   5
  0.0016846536624028   7   4   6   6
 -0.0000003372840847   7   4   7   1
  0.0000014546630319   7   4   7   2
 -0.0000068131851088   7   4   7   3
  0.0000424375725632   7   4   7   4
  0.0001791849215210   7   5   1   1
 -0.0000093501393047   7   5   2   1
  0.0003904722152693   7   5   2   2
  0.0000082781095370   7   5   3   1
 -0.0000498830006945   7   5   3   2
  0.0010177279961032   7   5   3   3
 -0.0000094959616752   7   5   4   1
  0.0000340695401015   7   5   4   2
 -0.0001917507107390   7   5   4   3
  0.0031520044191321   7   5   4   4
 -0.0000037410114572   7   5   5   1
  0.0000200374062505   7   5   5   2
 -0.0001188101465827   7   5   5   3
  0.0004480296331347   7   5   5   4
  0.0024044040760628   7   5   5   5
  0.0000001444706844   7   5   6   1
 -0.0000010047670343   7   5   6   2
  0.0000084252922166   7   5   6   3
  0.0000527457559988   7   5   6   4
 -0.0013311394200908   7   5   6   5
 -0.0075969187434550   7   5   6   6
  0.0000012016931108   7   5   7   1
 -0.0000053176961642   7   5   7   2
  0.0000206333018639   7   5   7   3
 -0.0001003744099331   7   5   7   4
  0.0006291398029110   7   5   7   5
 -0.0003962926173163   7   6   1   1
  0.0000121266503369   7   6   2   1
 -0.0007619898021689   7   6   2   2
 -0.0000097319608937   7   6   3   1
  0.0000575695182708   7   6   3   2
 -0.0016507791834068   7   6   3   3
  0.0000133287140430   7   6   4   1
 -0.0000498103359779   7   6   4   2
  0.0002442245273172   7   6   4   3
 -0.0045325607438874   7   6   4   4
 -0.0000139893244520   7   6   5   1
  0.0000602027118808   7   6   5   2
 -0.0001917186558180   7   6   5   3
  0.0010432964523154   7   6   5   4
 -0.0153369164233185   7   6   5   5
 -0.0000023415108725   7   6   6   1
  0.0000112771726046   7   6   6   2
 -0.0000611781542295   7   6   6   3
  0.0004480296331348   7   6   6   4
 -0.0015499494541044   7   6   6   5
 -0.0164196933354902   7   6   6   6
 -0.0000044154392603   7   6   7   1
  0.0000196780391905   7   6   7   2
 -0.0000761085775446   7   6   7   3
  0.0002674415347258   7   6   7   4
 -0.0013312345721729   7   6   7   5
  0.0122636289105671   7   6   7   6
  0.0910171389782582   7   7   1   1
 -0.0000822122665678   7   7   2   1
  0.1106493544866824   7   7   2   2
  0.0000859252382362   7   7   3   1
 -0.0007223010859946   7   7   3   2
  0.1382907923156487   7   7   3   3
 -0.0001056700354307   7   7   4   1
  0.0003754411822196   7   7   4   2
 -0.0016460547504293   7   7   4   3
  0.1840098198881466   7   7   4   4
  0.0000816294420542   7   7   5   1
 -0.0003524630964353   7   7   5   2
  0.0010157543590989   7   7   5   3
 -0.0045325607438874   7   7   5   4
  0.2742147612869680   7   7   5   5
 -0.0000656001026591   7   7   6   1
  0.0002884268025133   7   7   6   2
 -0.0010592465053366   7   7   6   3
  0.0031520044191309   7   7   6   4
 -0.0153383396276210   7   7   6   5
  0.5001326138848048   7   7   6   6
  0.0000295342749724   7   7   7   1
 -0.0001206769457530   7   7   7   2
  0.0004456377395507   7   7   7   3
 -0.0014735290802078   7   7   7   4
  0.0024047959345543   7   7   7   5
 -0.0164218014043192   7   7   7   6
  0.9247228685091703   7   7   7   7
 -0.0000077197702694   8   1   1   1
  0.0000012958454805   8   1   2   1
  0.0000035432181909   8   1   2   2
 -0.0000003345518797   8   1   3   1
  0.0000003422686757   8   1   3   2
  0.0000047798867128   8   1   3   3
  0.0000000917889041   8   1   4   1
 -0.0000001309604043   8   1   4   2
  0.0000001388131437   8   1   4   3
  0.0000037624776061   8   1   4   4
 -0.0000000238137533   8   1   5   1
  0.0000000318968982   8   1   5   2
 -0.0000000680101767   8   1   5   3
  0.0000001849204365   8   1   5   4
  0.0000036028189684   8   1   5   5
  0.0000000061390162   8   1   6   1
 -0.0000000081022256   8   1   6   2
  0.0000000149038896   8   1   6   3
 -0.0000000707827634   8   1   6   4
  0.0000001623585312   8   1   6   5
  0.0000042181348350   8   1   6   6
 -0.0000000018867506   8   1   7   1
  0.0000000032750388   8   1   7   2
 -0.0000000083931817   8   1   7   3
  0.0000000337778682   8   1   7   4
 -0.0000001361787126   8   1   7   5
  0.0000003819419182   8   1   7   6
  0.0000024174434763   8   1   7   7
  0.0000000007461936   8   1   8   1
  0.0000203943374975   8   2   1   1
  0.0000008996260435   8   2   2   1
  0.0000350123528412   8   2   2   2
 -0.0000001200675434   8   2   3   1
 -0.0000052095432295   8   2   3   2
 -0.0000127067938304   8   2   3   3
 -0.0000000531094960   8   2   4   1
  0.0000014101211505   8   2   4   2
 -0.0000016859674709   8   2   4   3
 -0.0000201629188345   8   2   4   4
  0.0000000243803744   8   2   5   1
 -0.0000003969756294   8   2   5   2
  0.0000005946125797   8   2   5   3
 -0.0000005797320022   8   2   5   4
 -0.0000178309125067   8   2   5   5
 -0.0000000070285079   8   2   6   1
  0.0000001028403500   8   2   6   2
 -0.0000001397381868   8   2   6   3
  0.0000002846979180   8   2   6   4
 -0.0000005858822577   8   2   6   5
 -0.0000199944598446   8   2   6   6
  0.0000000031139592   8   2   7   1
 -0.0000000317826116   8   2   7   2
  0.0000000557398479   8   2   7   3
 -0.0000001396849295   8   2   7   4
  0.0000005947340983   8   2   7   5
 -0.0000016942246101   8   2   7   6
 -0.0000123933258475   8   2   7   7
 -0.0000000018987463   8   2   8   1
  0.0000000130148806   8   2   8   2
 -0.0000264365597475   8   3   1   1
  0.0000034185704862   8   3   2   1
 -0.0000789665700940   8   3   2   2
  0.0000011042194626   8   3   3   1
 -0.0000027571642550   8   3   3   2
 -0.0001225109293898   8   3   3   3
 -0.0000002772035985   8   3   4   1
  0.0000001862851862   8   3   4   2
  0.0000199342618469   8   3   4   3
  0.0000577664566305   8   3   4   4
  0.0000000000152239   8   3   5   1
  0.0000002850982651   8   3   5   2
 -0.0000053857950132   8   3   5   3
  0.0000058624308936   8   3   5   4
  0.0000892688290173   8   3   5   5
  0.0000000090537641   8   3   6   1
 -0.0000001122334380   8   3   6   2
  0.0000014749229401   8   3   6   3
 -0.0000021381796537   8   3   6   4
  0.0000010647865959   8   3   6   5
  0.0000892688290173   8   3   6   6
 -0.0000000073640490   8   3   7   1
  0.0000000516758194   8   3   7   2
 -0.0000004581876902   8   3   7   3
  0.0000007889308850   8   3   7   4
 -0.0000021381796537   8   3   7   5
  0.0000058624308936   8   3   7   6
  0.0000577664566306   8   3   7   7
  0.0000000061369757   8   3   8   1
 -0.0000000317421859   8   3   8   2
  0.0000001851520358   8   3   8   3
  0.0000410413260193   8   4   1   1
 -0.0000033213248970   8   4   2   1
  0.0001014674287598   8   4   2   2
  0.0000024606363261   8   4   3   1
 -0.0000162485894223   8   4   3   2
  0.0002928380114586   8   4   3   3
  0.0000002644979723   8   4   4   1
 -0.0000043426669427   8   4   4   2
  0.0000113981406761   8   4   4   3
  0.0004456377395510   8   4   4   4
 -0.0000001771943973   8   4   5   1
  0.0000012291525736   8   4   5   2
 -0.0000010118479239   8   4   5   3
 -0.0000761085775446   8   4   5   4
 -0.0002849159252353   8   4   5   5
 -0.0000000050950091   8   4   6   1
 -0.0000000246060330   8   4   6   2
 -0.0000009510926864   8   4   6   3
  0.0000206333018639   8   4   6   4
 -0.0000178843910910   8   4   6   5
 -0.0004427467684678   8   4   6   6
  0.0000000268413911   8   4   7   1
 -0.0000001122855141   8   4   7   2
  0.0000007022874728   8   4   7   3
 -0.0000068131851088   8   4   7   4
  0.0000124441384055   8   4   7   5
 -0.0000178858874992   8   4   7   6
 -0.0002851665490185   8   4   7   7
 -0.0000000239563660   8   4   8   1
  0.0000001024717281   8   4   8   2
 -0.0000004581876902   8   4   8   3
  0.0000027786288866   8   4   8   4
 -0.0000720293344482   8   5   1   1
  0.0000030571695706   8   5   2   1
 -0.0001483183778610   8   5   2   2
 -0.0000026273359978   8   5   3   1
  0.0000157893445147   8   5   3   2
 -0.0003595504685185   8   5   3   3
  0.0000031041448097   8   5   4   1
 -0.0000112016180959   8   5   4   2
  0.0000609592006073   8   5   4   3
 -0.0010592465053359   8   5   4   4
  0.0000002100933432   8   5   5   1
 -0.0000019051022540   8   5   5   2
  0.0000202033831015   8   5   5   3
 -0.0000611781542295   8   5   5   4
 -0.0014714408677543   8   5   5   5
 -0.0000002421259372   8   5   6   1
  0.0000012192540385   8   5   6   2
 -0.0000065046189978   8   5   6   3
  0.0000084252922166   8   5   6   4
  0.0002671436230036   8   5   6   5
  0.0016846930322632   8   5   6   6
 -0.0000000634271347   8   5   7   1
  0.0000002868595229   8   5   7   2
 -0.0000009510926864   8   5   7   3
  0.0000082331924457   8   5   7   4
 -0.0001002866907163   8   5   7   5
  0.0001339230535477   8   5   7   6
  0.0016851730287865   8   5   7   7
  0.0000000908792185   8   5   8   1
 -0.0000003954605165   8   5   8   2
  0.0000014749229401   8   5   8   3
 -0.0000068156794660   8   5   8   4
  0.0000423974778176   8   5   8   5
  0.0001009645931767   8   6   1   1
 -0.0000026930050901   8   6   2   1
  0.0001879024800324   8   6   2   2
  0.0000021117487788   8   6   3   1
 -0.0000125812101077   8   6   3   2
  0.0003908992451110   8   6   3   3
 -0.0000027879183885   8   6   4   1
  0.0000103112570869   8   6   4   2
 -0.0000506643640941   8   6   4   3
  0.0010157543590988   8   6   4   4
  0.0000026324414293   8   6   5   1
 -0.0000112542082985   8   6   5   2
  0.0000346575233426   8   6   5   3
 -0.0001917186558181   8   6   5   4
  0.0031465768988548   8   6   5   5
  0.0000009106432754   8   6   6   1
 -0.0000042708769291   8   6   6   2
  0.0000202033831015   8   6   6   3
 -0.0001188101465827   8   6   6   4
  0.0004479904197235   8   6   6   5
  0.0023952426847419   8   6   6   6
 -0.0000000641599991   8   6   7   1
  0.0000001723059493   8   6   7   2
 -0.0000010118479239   8   6   7   3
  0.0000084263370031   8   6   7   4
  0.0000527054890792   8   6   7   5
 -0.0013297936954613   8   6   7   6
 -0.0075999492150721   8   6   7   7
 -0.0000003166494801   8   6   8   1
  0.0000014000824837   8   6   8   2
 -0.0000053857950132   8   6   8   3
  0.0000206500704287   8   6   8   4
 -0.0001003433909082   8   6   8   5
  0.0006286770843251   8   6   8   6
 -0.0002394142888256   8   7   1   1
  0.0000041358885739   8   7   2   1
 -0.0004122410865654   8   7   2   2
 -0.0000029078952376   8   7   3   1
  0.0000176423924927   8   7   3   2
 -0.0007614816414679   8   7   3   3
  0.0000035037999949   8   7   4   1
 -0.0000125756714439   8   7   4   2
  0.0000586816524431   8   7   4   3
 -0.0016460547504291   8   7   4   4
 -0.0000036523391389   8   7   5   1
  0.0000158470657940   8   7   5   2
 -0.0000506643640942   8   7   5   3
  0.0002442245273174   8   7   5   4
 -0.0045226861940575   8   7   5   5
  0.0000036294306892   8   7   6   1
 -0.0000162874681749   8   7   6   2
  0.0000609592006073   8   7   6   3
 -0.0001917507107390   8   7   6   4
  0.0010422676217173   8   7   6   5
 -0.0153129611961789   8   7   6   6
  0.0000005038064552   8   7   7   1
 -0.0000026485190921   8   7   7   2
  0.0000113981406761   8   7   7   3
 -0.0000612791585290   8   7   7   4
  0.0004481031845185   8   7   7   5
 -0.0015507800999022   8   7   7   6
 -0.0163732112229148   8   7   7   7
  0.0000012033125159   8   7   8   1
 -0.0000051626760696   8   7   8   2
  0.0000199342618469   8   7   8   3
 -0.0000761769911403   8   7   8   4
  0.0002674901749647   8   7   8   5
 -0.0013311883539723   8   7   8   6
  0.0122565619274269   8   7   8   7
  0.0782124525770743   8   8   1   1
 -0.0000101449563396   8   8   2   1
  0.0922934167159367   8   8   2   2
  0.0000356210472868   8   8   3   1
 -0.0003867535627900   8   8   3   2
  0.1107682005387250   8   8   3   3
 -0.0000492596495899   8   8   4   1
  0.0001788622264998   8   8   4   2
 -0.0007614816414681   8   8   4   3
  0.1382907923156491   8   8   4   4
  0.0000334360521509   8   8   5   1
 -0.0001451664220437   8   8   5   2
  0.0003908992451112   8   8   5   3
 -0.0016507791834074   8   8   5   4
  0.1839880155693917   8   8   5   5
 -0.0000230588661920   8   8   6   1
  0.0001001149319252   8   8   6   2
 -0.0003595504685190   8   8   6   3
  0.0010177279961027   8   8   6   4
 -0.0045316585619464   8   8   6   5
  0.2741664670252918   8   8   6   6
  0.0000185655519503   8   8   7   1
 -0.0000781528261397   8   8   7   2
  0.0002928380114584   8   8   7   3
 -0.0010602657504259   8   8   7   4
  0.0031513872051742   8   8   7   5
 -0.0153330046180572   8   8   7   6
  0.5000087666415989   8   8   7   7
 -0.0000083666040303   8   8   8   1
  0.0000350748395297   8   8   8   2
 -0.0001225109293898   8   8   8   3
  0.0004457199127053   8   8   8   4
 -0.0014720885341386   8   8   8   5
  0.0024013652973517   8   8   8   6
 -0.0164040235426754   8   8   8   7
  0.9243314021568562   8   8   8   8
  0.0000021169080380   9   1   1   1
 -0.0000003474294234   9   1   2   1
 -0.0000008533370470   9   1   2   2
  0.0000000890525029   9   1   3   1
 -0.0000000937665818   9   1   3   2
 -0.0000011541666282   9   1   3   3
 -0.0000000242460632   9   1   4   1
  0.0000000337815833   9   1   4   2
 -0.0000000362475005   9   1   4   3
 -0.0000008959076218   9   1   4   4
  0.0000000063511518   9   1   5   1
 -0.0000000085433358   9   1   5   2
  0.0000000182087701   9   1   5   3
 -0.0000000547168753   9   1   5   4
 -0.0000008021320534   9   1   5   5
 -0.0000000016596123   9   1   6   1
  0.0000000022820996   9   1   6   2
 -0.0000000044881926   9   1   6   3
  0.0000000199748257   9   1   6   4
 -0.0000000566526765   9   1   6   5
 -0.0000008427787432   9   1   6   6
  0.0000000004398807   9   1   7   1
 -0.0000000005986774   9   1   7   2
  0.0000000011796867   9   1   7   3
 -0.0000000047407702   9   1   7   4
  0.0000000192797749   9   1   7   5
 -0.0000000420113463   9   1   7   6
 -0.0000010046769845   9   1   7   7
 -0.0000000001358135   9   1   8   1
  0.0000000002344586   9   1   8   2
 -0.0000000006203172   9   1   8   3
  0.0000000024313037   9   1   8   4
 -0.0000000091495587   9   1   8   5
  0.0000000350998345   9   1   8   6
 -0.0000001039475567   9   1   8   7
 -0.0000005637523347   9   1   8   8
  0.0000000000537736   9   1   9   1
 -0.0000055882020700   9   2   1   1
 -0.0000002240171172   9   2   2   1
 -0.0000097252160823   9   2   2   2
  0.0000000312504400   9   2   3   1
  0.0000014013924470   9   2   3   2
  0.0000027345188465   9   2   3   3
  0.0000000128998283   9   2   4   1
 -0.0000003677243821   9   2   4   2
  0.0000004400780845   9   2   4   3
  0.0000047297022769   9   2   4   4
 -0.0000000064101912   9   2   5   1
  0.0000001051692124   9   2   5   2
 -0.0000001567139472   9   2   5   3
  0.0000001872269978   9   2   5   4
  0.0000039344980340   9   2   5   5
  0.0000000019646646   9   2   6   1
 -0.0000000278318039   9   2   6   2
  0.0000000394235729   9   2   6   3
 -0.0000000829675139   9   2   6   4
  0.0000002232545794   9   2   6   5
  0.0000039344980340   9   2   6   6
 -0.0000000005451116   9   2   7   1
  0.0000000072140886   9   2   7   2
 -0.0000000101114455   9   2   7   3
  0.0000000187849868   9   2   7   4
 -0.0000000829675139   9   2   7   5
  0.0000001872269978   9   2   7   6
  0.0000047297022769   9   2   7   7
  0.0000000002282728   9   2   8   1
 -0.0000000022682514   9   2   8   2
  0.0000000039970075   9   2   8   3
 -0.0000000101114455   9   2   8   4
  0.0000000394235729   9   2   8   5
 -0.0000001567139472   9   2   8   6
  0.0000004400780845   9   2   8   7
  0.0000027345188465   9   2   8   8
 -0.0000000001373957   9   2   9   1
  0.0000000009300509   9   2   9   2
  0.0000075194369830   9   3   1   1
 -0.0000009225739317   9   3   2   1
  0.0000219340544353   9   3   2   2
 -0.0000002705976760   9   3   3   1
  0.0000005971306944   9   3   3   2
  0.0000350748395300   9   3   3   3
  0.0000000763298781   9   3   4   1
 -0.0000000771978189   9   3   4   2
 -0.0000051626760696   9   3   4   3
 -0.0000123933258473   9   3   4   4
 -0.0000000001263370   9   3   5   1
 -0.0000000724141000   9   3   5   2
  0.0000014000824837   9   3   5   3
 -0.0000016942246101   9   3   5   4
 -0.0000199944598444   9   3   5   5
 -0.0000000028218162   9   3   6   1
  0.0000000313067606   9   3   6   2
 -0.0000003954605165   9   3   6   3
  0.0000005947340983   9   3   6   4
 -0.0000005858822577   9   3   6   5
 -0.0000178309125066   9   3   6   6
  0.0000000008875418   9   3   7   1
 -0.0000000089003219   9   3   7   2
  0.0000001024717281   9   3   7   3
 -0.0000001396849295   9   3   7   4
  0.0000002846979180   9   3   7   5
 -0.0000005797320022   9   3   7   6
 -0.0000201629188344   9   3   7   7
 -0.0000000005680866   9   3   8   1
  0.0000000038111196   9   3   8   2
 -0.0000000317421859   9   3   8   3
  0.0000000557398479   9   3   8   4
 -0.0000001397381868   9   3   8   5
  0.0000005946125797   9   3   8   6
 -0.0000016859674709   9   3   8   7
 -0.0000127067938302   9   3   8   8
  0.0000000004441641   9   3   9   1
 -0.0000000022682514   9   3   9   2
  0.0000000130148806   9   3   9   3
 -0.0000116493442455   9   4   1   1
  0.0000008663831495   9   4   2   1
 -0.0000279237100430   9   4   2   2
 -0.0000006333505850   9   4   3   1
  0.0000041834267884   9   4   3   2
 -0.0000781528261394   9   4   3   3
 -0.0000000532793017   9   4   4   1
  0.0000010513030740   9   4   4   2
 -0.0000026485190921   9   4   4   3
 -0.0001206769457524   9   4   4   4
  0.0000000373513492   9   4   5   1
 -0.0000002799325429   9   4   5   2
  0.0000001723059493   9   4   5   3
  0.0000196780391905   9   4   5   4
  0.0000574345699984   9   4   5   5
  0.0000000044476304   9   4   6   1
 -0.0000000077164846   9   4   6   2
  0.0000002868595229   9   4   6   3
 -0.0000053176961642   9   4   6   4
  0.0000057797451713   9   4   6   5
  0.0000887665649290   9   4   6   6
 -0.0000000031248759   9   4   7   1
  0.0000000120870639   9   4   7   2
 -0.0000001122855141   9   4   7   3
  0.0000014546630319   9   4   7   4
 -0.0000021068226641   9   4   7   5
  0.0000010140659516   9   4   7   6
  0.0000892491507282   9   4   7   7