 &FCI NORB=  10,NELEC=  10,MS2=   0,
  ORBSYM=1,1,1,1,1,5,5,5,5,5,
  ISYM=   1,
 &END
  0.3477077076410522   1   1   1   1
 -0.0687027246641785   2   1   1   1
  0.0873278950803473   2   1   2   1
  0.2713354354042858   2   2   1   1
 -0.0074996811907336   2   2   2   1
  0.2876940462719287   2   2   2   2
 -0.0018847350092796   3   1   1   1
  0.0384665856463318   3   1   2   1
 -0.0221285666409286   3   1   2   2
  0.0620030199743792   3   1   3   1
  0.0757180734708656   3   2   1   1
 -0.0606160677889138   3   2   2   1
  0.0103689025429176   3   2   2   2
 -0.0065848495546104   3   2   3   1
  0.0774916274268974   3   2   3   2
  0.2918223690762951   3   3   1   1
 -0.0191723280824624   3   3   2   1
  0.2695836823911130   3   3   2   2
  0.0029299470719130   3   3   3   1
  0.0269756915299334   3   3   3   2
  0.2899845689585453   3   3   3   3
  0.0010061243423280   4   1   1   1
 -0.0024076319501547   4   1   2   1
 -0.0231692713317424   4   1   2   2
  0.0221028238261566   4   1   3   1
 -0.0136299593635942   4   1   3   2
 -0.0020164928031887   4   1   3   3
  0.0372530251285422   4   1   4   1
 -0.0056552484567539   4   2   1   1
 -0.0330749825391245   4   2   2   1
 -0.0074016766178462   4   2   2   2
 -0.0335899511559262   4   2   3   1
  0.0005979761514233   4   2   3   2
  0.0052277256573212   4   2   3   3
  0.0053389917809950   4   2   4   1
  0.0506012469959667   4   2   4   2
  0.0728533406832518   4   3   1   1
 -0.0549776398777713   4   3   2   1
  0.0122877035368627   4   3   2   2
 -0.0038249321752565   4   3   3   1
  0.0563342044413983   4   3   3   2
  0.0196787180183765   4   3   3   3
  0.0032434757217223   4   3   4   1
 -0.0091723743092083   4   3   4   2
  0.0676971835397987   4   3   4   3
  0.2744045006374633   4   4   1   1
  0.0010056161550738   4   4   2   1
  0.2727331478059604   4   4   2   2
  0.0062335359710452   4   4   3   1
 -0.0023488512746531   4   4   3   2
  0.2754817973999483   4   4   3   3
  0.0074559672042105   4   4   4   1
 -0.0097649840766029   4   4   4   2
  0.0103152220914265   4   4   4   3
  0.2952119127397548   4   4   4   4
 -0.0015164490469213   5   1   1   1
  0.0007531818776503   5   1   2   1
  0.0005164412236498   5   1   2   2
 -0.0017311793371094   5   1   3   1
  0.0162624404936995   5   1   3   2
  0.0118956166158574   5   1   3   3
 -0.0182963023964400   5   1   4   1
  0.0112900485220225   5   1   4   2
 -0.0122313590425666   5   1   4   3
 -0.0136475512514155   5   1   4   4
  0.0315748379648303   5   1   5   1
 -0.0034415667677417   5   2   1   1
  0.0017316829580012   5   2   2   1
 -0.0254434440803245   5   2   2   2
  0.0237641816104225   5   2   3   1
  0.0001887318918801   5   2   3   2
  0.0043860268188343   5   2   3   3
  0.0210446204150885   5   2   4   1
  0.0121405740007040   5   2   4   2
 -0.0135585852039542   5   2   4   3
 -0.0047160175006631   5   2   4   4
  0.0101130453236796   5   2   5   1
  0.0353518202522698   5   2   5   2
 -0.0036854298479187   5   3   1   1
  0.0399620350027636   5   3   2   1
  0.0049054579665068   5   3   2   2
  0.0348732483969732   5   3   3   1
  0.0026355393001353   5   3   3   2
  0.0053714611400347   5   3   3   3
 -0.0156404235651391   5   3   4   1
 -0.0372089889544819   5   3   4   2
 -0.0091288669408535   5   3   4   3
 -0.0046229652092070   5   3   4   4
  0.0161168076791145   5   3   5   1
  0.0003149202090999   5   3   5   2
  0.0535974153744751   5   3   5   3
 -0.0764423713611206   5   4   1   1
  0.0570286670133092   5   4   2   1
  0.0088570695194497   5   4   2   2
 -0.0182433816314830   5   4   3   1
 -0.0629709709681216   5   4   3   2
 -0.0264010485377621   5   4   3   3
 -0.0212746257351880   5   4   4   1
 -0.0006705823292285   5   4   4   2
 -0.0587433028123338   5   4   4   3
 -0.0060922468574732   5   4   4   4
  0.0011516690869951   5   4   5   1
 -0.0213212888325484   5   4   5   2
  0.0069894016348189   5   4   5   3
  0.0888072718940410   5   4   5   4
  0.2966739745259738   5   5   1   1
  0.0190382359938831   5   5   2   1
  0.2817981997159387   5   5   2   2
  0.0384332297163884   5   5   3   1
  0.0164648633669263   5   5   3   2
  0.2931907601748021   5   5   3   3
 -0.0019524687740991   5   5   4   1
 -0.0421328038554166   5   5   4   2
  0.0197220494969522   5   5   4   3
  0.2991504160304578   5   5   4   4
 -0.0004480104538772   5   5   5   1
 -0.0022627749222046   5   5   5   2
  0.0418190031032568   5   5   5   3
 -0.0214699484960583   5   5   5   4
  0.3531712485212081   5   5   5   5
  0.1227399919054637   6   1   6   1
  0.0773353545931172   6   2   6   1
  0.1026215239409957   6   2   6   2
  0.0511421609201968   6   3   6   1
  0.0049762861186268   6   3   6   2
  0.0647892336495352   6   3   6   3
 -0.0028333713189816   6   4   6   1
 -0.0306570187405028   6   4   6   2
  0.0008145321036502   6   4   6   3
  0.0461618844008054   6   4   6   4
 -0.0001745012651268   6   5   6   1
  0.0015609222812514   6   5   6   2
  0.0185944890981682   6   5   6   3
 -0.0034374974811159   6   5   6   4
  0.0445046395760409   6   5   6   5
  0.2779496469852172   6   6   1   1
  0.0218574031197451   6   6   2   1
  0.2647388624542948   6   6   2   2
  0.0383577635192129   6   6   3   1
  0.0134364960717990   6   6   3   2
  0.2735855730476246   6   6   3   3
 -0.0016662744849672   6   6   4   1
 -0.0401108116648089   6   6   4   2
  0.0162188893961335   6   6   4   3
  0.2768185980556774   6   6   4   4
 -0.0003607317698135   6   6   5   1
 -0.0015556862488646   6   6   5   2
  0.0381642118925156   6   6   5   3
 -0.0178885826646238   6   6   5   4
  0.3184302425880454   6   6   5   5
  0.3021586527992987   6   6   6   6
  0.0483452735340644   7   1   6   1
 -0.0192016949161219   7   1   6   2
  0.0466940369383337   7   1   6   3
  0.0255830749304434   7   1   6   4
 -0.0005718484643943   7   1   6   5
  0.0649279517042751   7   1   7   1
 -0.0733441497043799   7   2   6   1
 -0.0808223396732069   7   2   6   2
  0.0180476996914903   7   2   6   3
  0.0040046982648651   7   2   6   4
  0.0188592353601184   7   2   6   5
  0.0043587274887328   7   2   7   1
  0.0991738708061227   7   2   7   2
  0.0871159449715095   7   3   6   1
  0.0829831136569224   7   3   6   2
  0.0124932756598253   7   3   6   3
  0.0100012417631047   7   3   6   4
 -0.0000670808552310   7   3   6   5
  0.0086557863387835   7   3   7   1
 -0.0831246649960601   7   3   7   2
  0.1010799525313003   7   3   7   3
  0.0431935654052723   7   4   6   1
  0.0008167549329113   7   4   6   2
  0.0428397521527833   7   4   6   3
 -0.0034224954010290   7   4   6   4
 -0.0240944419354990   7   4   6   5
  0.0417038004182898   7   4   7   1
  0.0043272179302679   7   4   7   2
  0.0024344467730307   7   4   7   3
  0.0649999723599504   7   4   7   4
  0.0040530888648484   7   5   6   1
  0.0310180048154641   7   5   6   2
  0.0005110835279833   7   5   6   3
 -0.0419982468683333   7   5   6   4
  0.0044268569670377   7   5   6   5
 -0.0245067807959772   7   5   7   1
 -0.0046844307281133   7   5   7   2
 -0.0044016130904239   7   5   7   3
  0.0035030675215918   7   5   7   4
  0.0449815489741287   7   5   7   5
  0.0723203293575215   7   6   1   1
 -0.0522829063416786   7   6   2   1
 -0.0140199186147431   7   6   2   2
  0.0242185440866392   7   6   3   1
  0.0600556637610089   7   6   3   2
  0.0242271963955482   7   6   3   3
  0.0232063857154028   7   6   4   1
 -0.0013685807393802   7   6   4   2
  0.0552730027466495   7   6   4   3
  0.0049965688579380   7   6   4   4
 -0.0008408243202290   7   6   5   1
  0.0222034245601500   7   6   5   2
 -0.0038429179223183   7   6   5   3
 -0.0800694748289209   7   6   5   4
  0.0212440112439037   7   6   5   5
  0.0185323651964782   7   6   6   6
  0.0811621721838912   7   6   7   6
  0.2646697952374503   7   7   1   1
  0.0025255481601616   7   7   2   1
  0.2649755284811419   7   7   2   2
  0.0061598664212403   7   7   3   1
 -0.0112919027919633   7   7   3   2
  0.2683617711517426   7   7   3   3
  0.0135791192667866   7   7   4   1
 -0.0057880676583075   7   7   4   2
  0.0072307384822766   7   7   4   3
  0.2817577194321171   7   7   4   4
 -0.0157874403989217   7   7   5   1
 -0.0033616787938708   7   7   5   2
 -0.0035476201612325   7   7   5   3
 -0.0038862153017703   7   7   5   4
  0.2858948550405965   7   7   5   5
  0.2683641748237020   7   7   6   6
  0.0025177146773587   7   7   7   6
  0.2808061800644626   7   7   7   7
 -0.0040621978985367   8   1   6   1
  0.0296891320800744   8   1   6   2
  0.0133376391169684   8   1   6   3
 -0.0322278104961751   8   1   6   4
  0.0215854483477688   8   1   6   5
 -0.0299180137995691   8   1   7   1
  0.0148566838313377   8   1   7   2
  0.0022988075222620   8   1   7   3
 -0.0046946932752534   8   1   7   4
  0.0324380421715529   8   1   7   5
  0.0529084167042918   8   1   8   1
  0.0517319044838784   8   2   6   1
  0.0096862601359104   8   2   6   2
  0.0415791793389139   8   2   6   3
 -0.0173559895512757   8   2   6   4
 -0.0014857045785504   8   2   6   5
  0.0413032688854211   8   2   7   1
 -0.0045222818946173   8   2   7   2
 -0.0007847585747586   8   2   7   3
  0.0449380681382524   8   2   7   4
  0.0135013408684384   8   2   7   5
 -0.0052154971425210   8   2   8   1
  0.0590246263067257   8   2   8   2
  0.0688914090346427   8   3   6   1
  0.0666159359395454   8   3   6   2
  0.0077638004631539   8   3   6   3
 -0.0056249539735788   8   3   6   4
  0.0227642499189078   8   3   6   5
  0.0054932492200460   8   3   7   1
 -0.0664394324868480   8   3   7   2
  0.0685660993460958   8   3   7   3
 -0.0184638740723208   8   3   7   4
  0.0064828879692527   8   3   7   5
  0.0015200590597081   8   3   8   1
  0.0119985701534205   8   3   8   2
  0.0780253320456046   8   3   8   3
 -0.0897603374309268   8   4   6   1
 -0.0849672783501906   8   4   6   2
 -0.0128296897282592   8   4   6   3
 -0.0031656187834800   8   4   6   4
  0.0018373522541455   8   4   6   5
 -0.0091648761281186   8   4   7   1
  0.0845793191757293   8   4   7   2
 -0.0962139079385584   8   4   7   3
 -0.0050919514999349   8   4   7   4
  0.0060676369506886   8   4   7   5
 -0.0022508929850130   8   4   8   1
 -0.0071319464583176   8   4   8   2
 -0.0694369314872314   8   4   8   3
  0.1030786599324619   8   4   8   4
  0.0526562143107023   8   5   6   1
  0.0036956822342760   8   5   6   2
  0.0618006458474157   8   5   6   3
  0.0027779101804944   8   5   6   4
  0.0165157532813708   8   5   6   5
  0.0492431331249373   8   5   7   1
  0.0133316971577215   8   5   7   2
  0.0129079337626294   8   5   7   3
  0.0444712342929034   8   5   7   4
 -0.0017807546526819   8   5   7   5
  0.0069925730689357   8   5   8   1
  0.0435808253091991   8   5   8   2
  0.0084537805942789   8   5   8   3
 -0.0142867454915263   8   5   8   4
  0.0679849046624839   8   5   8   5
 -0.0045036938293201   8   6   1   1
  0.0393444125481698   8   6   2   1
  0.0054066728293440   8   6   2   2
  0.0323875924659025   8   6   3   1
  0.0075483336689934   8   6   3   2
  0.0043667028894465   8   6   3   3
 -0.0209753538045805   8   6   4   1
 -0.0369282071646484   8   6   4   2
 -0.0083122871270372   8   6   4   3
 -0.0021733044922020   8   6   4   4
  0.0183912028846010   8   6   5   1
 -0.0014712330646607   8   6   5   2
  0.0492876516374192   8   6   5   3
  0.0076246810249637   8   6   5   4
  0.0376294090814173   8   6   5   5
  0.0368001523058147   8   6   6   6
 -0.0050495348727182   8   6   7   6
 -0.0093226832171749   8   6   7   7
  0.0531288392712727   8   6   8   6
 -0.0707912418297839   8   7   1   1
  0.0534415077076533   8   7   2   1
 -0.0111491276010939   8   7   2   2
  0.0034935546968996   8   7   3   1
 -0.0543747988026539   8   7   3   2
 -0.0117922711809614   8   7   3   3
 -0.0033948306184301   8   7   4   1
  0.0150658420587917   8   7   4   2
 -0.0628717077314520   8   7   4   3
 -0.0100142838777461   8   7   4   4
  0.0164429266690285   8   7   5   1
  0.0114425845985681   8   7   5   2
  0.0084188109898617   8   7   5   3
  0.0571693689673632   8   7   5   4
 -0.0186085048113714   8   7   5   5
 -0.0155309552163083   8   7   6   6
 -0.0538618792788104   8   7   7   6
 -0.0057030789330727   8   7   7   7
  0.0081836972545261   8   7   8   6
  0.0672836842123385   8   7   8   7
  0.2947086640183589   8   8   1   1
 -0.0192496264873927   8   8   2   1
  0.2717982471201166   8   8   2   2
  0.0031131801509680   8   8   3   1
  0.0267395841159335   8   8   3   2
  0.2845814420709858   8   8   3   3
 -0.0018207826313708   8   8   4   1
 -0.0022218666950675   8   8   4   2
  0.0159420252125024   8   8   4   3
  0.2799410622394001   8   8   4   4
  0.0064567501930916   8   8   5   1
  0.0068916388348698   8   8   5   2
  0.0057312319899599   8   8   5   3
 -0.0270703056729680   8   8   5   4
  0.2976697345974407   8   8   5   5
  0.2762718561543930   8   8   6   6
  0.0244351679262509   8   8   7   6
  0.2699551445146831   8   8   7   7
  0.0042682710235451   8   8   8   6
 -0.0195047387145625   8   8   8   7
  0.2940207199315821   8   8   8   8
  0.0019829013035388   9   1   6   1
 -0.0005448897659550   9   1   6   2
 -0.0191621434475059   9   1   6   3
 -0.0122270101031238   9   1   6   4
 -0.0194404556409030   9   1   6   5
  0.0008917725763817   9   1   7   1
 -0.0193762654708906   9   1   7   2
 -0.0129517732607848   9   1   7   3
  0.0040157662196681   9   1   7   4
  0.0082206146576763   9   1   7   5
 -0.0221345454796288   9   1   8   1
  0.0178748230998795   9   1   8   2
  0.0031778246753852   9   1   8   3
  0.0071128962863139   9   1   8   4
 -0.0157956148285462   9   1   8   5
  0.0349148069634258   9   1   9   1
 -0.0014671926041222   9   2   6   1
  0.0277923337854407   9   2   6   2
 -0.0022890968299613   9   2   6   3
 -0.0313007745080789   9   2   6   4
 -0.0212550643298623   9   2   6   5
 -0.0267195362689722   9   2   7   1
 -0.0029172108776628   9   2   7   2
  0.0004295266873652   9   2   7   3
  0.0220322347303320   9   2   7   4
  0.0309895902828555   9   2   7   5
  0.0317380040329189   9   2   8   1
  0.0009538387101900   9   2   8   2
 -0.0207038061249627   9   2   8   3
 -0.0024629606154452   9   2   8   4
 -0.0044578723255046   9   2   8   5
 -0.0014881912872424   9   2   9   1
  0.0533063720900639   9   2   9   2
 -0.0535260939569101   9   3   6   1
 -0.0095196806943746   9   3   6   2
 -0.0440723649323423   9   3   6   3
  0.0112727381862661   9   3   6   4
 -0.0000072884847741   9   3   6   5
 -0.0435863321800428   9   3   7   1
  0.0047872115732888   9   3   7   2
 -0.0058975607971423   9   3   7   3
 -0.0453344171400183   9   3   7   4
 -0.0150237743533163   9   3   7   5
  0.0056351629638062   9   3   8   1
 -0.0549482416552409   9   3   8   2
 -0.0133527834893551   9   3   8   3
  0.0040560157840182   9   3   8   4
 -0.0456465827763981   9   3   8   5
 -0.0129487210763678   9   3   9   1
  0.0011747409981694   9   3   9   2
  0.0599848199831305   9   3   9   3
 -0.0782909257119571   9   4   6   1
 -0.0844286516190365   9   4   6   2
  0.0101231328633967   9   4   6   3
  0.0066361038125585   9   4   6   4
  0.0165574480190403   9   4   6   5
  0.0024444965112609   9   4   7   1
  0.0962680701038231   9   4   7   2
 -0.0855853416382185   9   4   7   3
  0.0012472259829745   9   4   7   4
 -0.0066141893386893   9   4   7   5
  0.0088439745318934   9   4   8   1
 -0.0080765782725362   9   4   8   2
 -0.0690216423340057   9   4   8   3
  0.0886934388946030   9   4   8   4
  0.0133046553359242   9   4   8   5
 -0.0165290605490132   9   4   9   1
 -0.0046945281927533   9   4   9   2
  0.0083179086933210   9   4   9   3
  0.1038743013936256   9   4   9   4
 -0.0839066079319005   9   5   6   1
 -0.1046682163756207   9   5   6   2
 -0.0076007091786260   9   5   6   3
  0.0298830839654330   9   5   6   4
 -0.0014991625603914   9   5   6   5
  0.0146047598406316   9   5   7   1
  0.0852527573467393   9   5   7   2
 -0.0883928376343840   9   5   7   3
 -0.0032183136455812   9   5   7   4
 -0.0323272856061220   9   5   7   5
 -0.0276124542269529   9   5   8   1
 -0.0126039839259674   9   5   8   2
 -0.0713738476333779   9   5   8   3
  0.0917845892952128   9   5   8   4
 -0.0068810453435581   9   5   8   5
  0.0001890066215586   9   5   9   1
 -0.0275605209558614   9   5   9   2
  0.0128136153080188   9   5   9   3
  0.0913121534940300   9   5   9   4
  0.1175807053558062   9   5   9   5
  0.0027388618460388   9   6   1   1
 -0.0018774738228902   9   6   2   1
  0.0248280633917085   9   6   2   2
 -0.0243408022331214   9   6   3   1
 -0.0007009115939733   9   6   3   2
 -0.0098494948325625   9   6   3   3
 -0.0209945354879486   9   6   4   1
 -0.0156025471118518   9   6   4   2
  0.0100871141612873   9   6   4   3
  0.0046416590301042   9   6   4   4
 -0.0128584192975876   9   6   5   1
 -0.0329485200375425   9   6   5   2
 -0.0006757973299856   9   6   5   3
  0.0207348169219211   9   6   5   4
  0.0010762831292997   9   6   5   5
  0.0005618059413428   9   6   6   6
 -0.0227270335302866   9   6   7   6
  0.0020528148952275   9   6   7   7
  0.0009701770287243   9   6   8   6
 -0.0151938176291927   9   6   8   7
 -0.0032778336942571   9   6   8   8
  0.0363926649305982   9   6   9   6
 -0.0068817914102798   9   7   1   1
 -0.0329062990027611   9   7   2   1
 -0.0081069716030725   9   7   2   2
 -0.0344247719425848   9   7   3   1
  0.0000705256123464   9   7   3   2
 -0.0018897004807769   9   7   3   3
  0.0047840946832138   9   7   4   1
  0.0459670409435724   9   7   4   2
 -0.0130979359533685   9   7   4   3
 -0.0098359019018967   9   7   4   4
  0.0077807719744365   9   7   5   1
  0.0140421910647876   9   7   5   2
 -0.0379054367134082   9   7   5   3
 -0.0000485568637270   9   7   5   4
 -0.0444816267078684   9   7   5   5
 -0.0413269812950196   9   7   6   6
 -0.0023990058446049   9   7   7   6
 -0.0078513563298264   9   7   7   7
 -0.0371183089174772   9   7   8   6
  0.0103405526355785   9   7   8   7
  0.0015292444947119   9   7   8   8
 -0.0106195922279200   9   7   9   6
  0.0496860377132457   9   7   9   7
 -0.0785978546157706   9   8   1   1
  0.0638011646917484   9   8   2   1
 -0.0107155171068537   9   8   2   2
  0.0071412516043904   9   8   3   1
 -0.0737639352912909   9   8   3   2
 -0.0284868100302905   9   8   3   3
  0.0075482762130293   9   8   4   1
 -0.0031282480401446   9   8   4   2
 -0.0576537732645689   9   8   4   3
  0.0051673507020336   9   8   4   4
 -0.0130831962097725   9   8   5   1
 -0.0019340311521933   9   8   5   2
 -0.0029770899443153   9   8   5   3
  0.0670595243247846   9   8   5   4
 -0.0164954286234454   9   8   5   5
 -0.0130278817564332   9   8   6   6
 -0.0622744287718201   9   8   7   6
  0.0046512127653618   9   8   7   7
  0.0001306033141598   9   8   8   6
  0.0564753695140462   9   8   8   7
 -0.0293992409834590   9   8   8   8
  0.0018070193738947   9   8   9   6
 -0.0028259958200244   9   8   9   7
  0.0804882809561253   9   8   9   8
  0.2873374275219288   9   9   1   1
 -0.0101403080381081   9   9   2   1
  0.2954045988222618   9   9   2   2
 -0.0164852929465732   9   9   3   1
  0.0152835611269340   9   9   3   2
  0.2837370981214591   9   9   3   3
 -0.0205221937752140   9   9   4   1
 -0.0097076032403536   9   9   4   2
  0.0169929725630484   9   9   4   3
  0.2883579134991897   9   9   4   4
  0.0002984498866935   9   9   5   1
 -0.0243233098572278   9   9   5   2
  0.0070985151002798   9   9   5   3
  0.0072510492975650   9   9   5   4
  0.3034641030666750   9   9   5   5
  0.2784087651048750   9   9   6   6
 -0.0051561569225358   9   9   7   6
  0.2768179828707986   9   9   7   7
  0.0066677043832821   9   9   8   6
 -0.0159865756186654   9   9   8   7
  0.2878709200115656   9   9   8   8
  0.0230269194844180   9   9   9   6
 -0.0104244349290985   9   9   9   7
 -0.0159789228841801   9   9   9   8
  0.3170502574738145   9   9   9   9
  0.0006845748872204  10   1   6   1
  0.0005080464813913  10   1   6   2
 -0.0013499238187391  10   1   6   3
 -0.0153850126747679  10   1   6   4
  0.0251398489316067  10   1   6   5
 -0.0002774309896950  10   1   7   1
 -0.0003108336928123  10   1   7   2
 -0.0131148836270270  10   1   7   3
 -0.0209942908249353  10   1   7   4
  0.0143530397023680  10   1   7   5
 -0.0007709229318290  10   1   8   1
  0.0155090980888828  10   1   8   2
  0.0261318983287520  10   1   8   3
  0.0117307807829498  10   1   8   4
 -0.0012429334225341  10   1   8   5
  0.0158738357300509  10   1   9   1
 -0.0233224608881700  10   1   9   2
 -0.0144772897156685  10   1   9   3
 -0.0005739034620988  10   1   9   4
 -0.0006334683987614  10   1   9   5
  0.0424241884054082  10   1  10   1
 -0.0023821422126860  10   2   6   1
 -0.0002685467453131  10   2   6   2
  0.0175264062694090  10   2   6   3
  0.0098330288965211  10   2   6   4
  0.0190152904643426  10   2   6   5
 -0.0007757996134169  10   2   7   1
  0.0187240613093663  10   2   7   2
  0.0091962797426823  10   2   7   3
 -0.0042777715816864  10   2   7   4
 -0.0105802861513016  10   2   7   5
  0.0204388748802552  10   2   8   1
 -0.0148817086293868  10   2   8   2
 -0.0032424511316819  10   2   8   3
 -0.0096881300995209  10   2   8   4
  0.0169493190658216  10   2   8   5
 -0.0316214829905795  10   2   9   1
  0.0009966531062523  10   2   9   2
  0.0157054975899766  10   2   9   3
  0.0180017518268245  10   2   9   4
  0.0004197538635238  10   2   9   5
 -0.0148630737723715  10   2  10   1
  0.0327065595321159  10   2  10   2
 -0.0032429706561616  10   3   6   1
  0.0289206151399617  10   3   6   2
  0.0106621235253695  10   3   6   3
 -0.0316059535437177  10   3   6   4
  0.0207488358535038  10   3   6   5
 -0.0286719863284845  10   3   7   1
  0.0113686717750941  10   3   7   2
  0.0027919155644778  10   3   7   3
 -0.0046206350278437  10   3   7   4
  0.0330122373684165  10   3   7   5
  0.0492300222293939  10   3   8   1
 -0.0047847578918867  10   3   8   2
  0.0020481057942205  10   3   8   3
 -0.0030422914686844  10   3   8   4
  0.0102658307627674  10   3   8   5
 -0.0203088856627854  10   3   9   1
  0.0316108523163905  10   3   9   2
  0.0057715001079691  10   3   9   3
  0.0117180417986941  10   3   9   4
 -0.0311812927605824  10   3   9   5
 -0.0007132682790923  10   3  10   1
  0.0207503784832158  10   3  10   2
  0.0529296724875355  10   3  10   3
 -0.0499186220801348  10   4   6   1
  0.0176270113744629  10   4   6   2
 -0.0485348297477242  10   4   6   3
 -0.0252990981867251  10   4   6   4
  0.0006966710928808  10   4   6   5
 -0.0653612130415162  10   4   7   1
 -0.0042212911942678  10   4   7   2
 -0.0091211938368019  10   4   7   3
 -0.0442912277306565  10   4   7   4
  0.0260067268168943  10   4   7   5
  0.0294334726493705  10   4   8   1
 -0.0436352679291109  10   4   8   2
 -0.0059274232197691  10   4   8   3
  0.0100426985298101  10   4   8   4
 -0.0536724109174338  10   4   8   5
 -0.0010794424984123  10   4   9   1
  0.0273504193862811  10   4   9   2
  0.0466732613611711  10   4   9   3
 -0.0026278300218235  10   4   9   4
 -0.0188752069835814  10   4   9   5
  0.0002409733987469  10   4  10   1
  0.0009556976459147  10   4  10   2
  0.0317452321301303  10   4  10   3
  0.0745463882287257  10   4  10   4
  0.1327266964391974  10   5   6   1
  0.0852631426565467  10   5   6   2
  0.0552936418660329  10   5   6   3
 -0.0036395511865883  10   5   6   4
 -0.0002873213234792  10   5   6   5
  0.0513985161993181  10   5   7   1
 -0.0808818224604256  10   5   7   2
  0.0964537480823698  10   5   7   3
  0.0479353107731450  10   5   7   4
  0.0053558410328179  10   5   7   5
 -0.0038143974084586  10   5   8   1
  0.0566074912486144  10   5   8   2
  0.0767483990484244  10   5   8   3
 -0.1007734803287591  10   5   8   4
  0.0604594782152184  10   5   8   5
  0.0021978020966940  10   5   9   1
 -0.0010102716125782  10   5   9   2
 -0.0605302593126189  10   5   9   3
 -0.0890639357538584  10   5   9   4
 -0.0968075786144473  10   5   9   5
  0.0008110808322586  10   5  10   1
 -0.0029532961239665  10   5  10   2
 -0.0033337257482883  10   5  10   3
 -0.0583568430755284  10   5  10   4
  0.1569122179478694  10   5  10   5
 -0.0018855000811987  10   6   1   1
  0.0008479531519295  10   6   2   1
 -0.0000956000816182  10   6   2   2
 -0.0015634854394521  10   6   3   1
  0.0152073079704465  10   6   3   2
  0.0084911202215208  10   6   3   3
 -0.0175009325748369  10   6   4   1
  0.0090117909005771  10   6   4   2
 -0.0148068259809840  10   6   4   3
 -0.0143985483092285  10   6   4   4
  0.0296668459869234  10   6   5   1
  0.0120177876130532  10   6   5   2
  0.0168274100263640  10   6   5   3
  0.0010948651490319  10   6   5   4
 -0.0008459563996381  10   6   5   5
 -0.0007320322393643  10   6   6   6
 -0.0008921666261396  10   6   7   6
 -0.0158162599226877  10   6   7   7
  0.0175762629441714  10   6   8   6
  0.0141040578784901  10   6   8   7
  0.0091861059340140  10   6   8   8
 -0.0109043876507213  10   6   9   6
  0.0100315628556316  10   6   9   7
 -0.0139906700844365  10   6   9   8
 -0.0000283190071746  10   6   9   9
  0.0306283275728464  10   6  10   6
 -0.0007596971710981  10   7   1   1
  0.0032377239168937  10   7   2   1
  0.0225276632634423  10   7   2   2
 -0.0200991694184627  10   7   3   1
  0.0099857499032745  10   7   3   2
  0.0024780954434354  10   7   3   3
 -0.0337354728437059  10   7   4   1
 -0.0056444489161306  10   7   4   2
 -0.0037532353994524  10   7   4   3
 -0.0099295898595797  10   7   4   4
  0.0167918654980564  10   7   5   1
 -0.0206604602115856  10   7   5   2
  0.0189682995476447  10   7   5   3
  0.0229975928214617  10   7   5   4
  0.0034919768797408  10   7   5   5
  0.0027229881530816  10   7   6   6
 -0.0223740683984657  10   7   7   6
 -0.0096146379299735  10   7   7   7
  0.0183666766194107  10   7   8   6
  0.0035923043194229  10   7   8   7
  0.0024739604848882  10   7   8   8
  0.0203436986219974  10   7   9   6
 -0.0054660544639620  10   7   9   7
 -0.0101962371979082  10   7   9   8
  0.0227428089688309  10   7   9   9
  0.0171279767915483  10   7  10   6
  0.0355830806894906  10   7  10   7
 -0.0006340623811930  10   8   1   1
  0.0376194830855540  10   8   2   1
 -0.0186961592169192  10   8   2   2
  0.0593400251865110  10   8   3   1
 -0.0059804823449086  10   8   3   2
  0.0039369193485559  10   8   3   3
  0.0203427060822068  10   8   4   1
 -0.0342072519499204  10   8   4   2
 -0.0036383097206328  10   8   4   3
  0.0075937247958034  10   8   4   4
 -0.0015435864403283  10   8   5   1
  0.0236249456248674  10   8   5   2
  0.0359304146477680  10   8   5   3
 -0.0224617367386123  10   8   5   4
  0.0434872154598084  10   8   5   5
  0.0386872688808441  10   8   6   6
  0.0220359964369656  10   8   7   6
  0.0067961552490798  10   8   7   7
  0.0329837438737970  10   8   8   6
  0.0032043571453388  10   8   8   7
  0.0042487447850976  10   8   8   8
 -0.0233601330053331  10   8   9   6
 -0.0352637955190146  10   8   9   7
  0.0073047479311923  10   8   9   8
 -0.0195331519197678  10   8   9   9
 -0.0014779344171458  10   8  10   6
 -0.0209008756965275  10   8  10   7
  0.0651189840005104  10   8  10   8
  0.0739383647033557  10   9   1   1
 -0.0918057928591779  10   9   2   1
  0.0082023819602092  10   9   2   2
 -0.0393715080117978  10   9   3   1
  0.0657143514404393  10   9   3   2
  0.0212840315692295  10   9   3   3
  0.0028188962523085  10   9   4   1
  0.0349696679206872  10   9   4   2
  0.0606285627330027  10   9   4   3
 -0.0007435056016223  10   9   4   4
 -0.0009385773439599  10   9   5   1
 -0.0015724002926030  10   9   5   2
 -0.0445520352192977  10   9   5   3
 -0.0647663648219971  10   9   5   4
 -0.0244036883458071  10   9   5   5
 -0.0209561247147337  10   9   6   6
  0.0568413741615196  10   9   7   6
 -0.0023287168149806  10   9   7   7
 -0.0412319198789929  10   9   8   6
 -0.0584967624732220  10   9   8   7
  0.0215653001248099  10   9   8   8
  0.0017684407798785  10   9   9   6
  0.0355765589769960  10   9   9   7
 -0.0710816393336342  10   9   9   8
  0.0112437734244193  10   9   9   9
 -0.0010612350860721  10   9  10   6
 -0.0041190053965027  10   9  10   7
 -0.0428817352504096  10   9  10   8
  0.1074184861104088  10   9  10   9
  0.3736995043090212  10  10   1   1
 -0.0741052080005283  10  10   2   1
  0.2922045949163345  10  10   2   2
 -0.0013717656180689  10  10   3   1
  0.0833556596209693  10  10   3   2
  0.3173061657233893  10  10   3   3
  0.0010202325188625  10  10   4   1
 -0.0068023689060495  10  10   4   2
  0.0821089712943142  10  10   4   3
  0.3015455392046168  10  10   4   4
 -0.0016590533620603  10  10   5   1
 -0.0041357028124610  10  10   5   2
 -0.0036473811598836  10  10   5   3
 -0.0882287998378193  10  10   5   4
  0.3322028252647807  10  10   5   5
  0.2993117011165443  10  10   6   6
  0.0791459929279655  10  10   7   6
  0.2858412207006849  10  10   7   7
 -0.0042279854821403  10  10   8   6
 -0.0784494851712457  10  10   8   7
  0.3221778144401195  10  10   8   8
  0.0029659738320745  10  10   9   6
 -0.0087183705283483  10  10   9   7
 -0.0892830441565894  10  10   9   8
  0.3183730306674503  10  10   9   9
 -0.0023159252179714  10  10  10   6
 -0.0008755947241409  10  10  10   7
 -0.0001480390364189  10  10  10   8
  0.0861154301360735  10  10  10   9
  0.4256603895892509  10  10  10  10
 -2.9465084236153594   1   1   0   0
  0.1408903653633680   2   1   0   0
 -2.6357514284714711   2   2   0   0
 -0.0466414582237347   3   1   0   0
 -0.2327517084558026   3   2   0   0
 -2.4582792042124328   3   3   0   0
  0.0275102385656582   4   1   0   0
  0.1276513463965152   4   2   0   0
 -0.2109101744388217   4   3   0   0
 -2.0681445941463470   4   4   0   0
  0.0209123715509663   5   1   0   0
  0.0336544083935064   5   2   0   0
 -0.0643942388688485   5   3   0   0
  0.2163032436089093   5   4   0   0
 -1.7093258545477457   5   5   0   0
 -2.7674832024038842   6   6   0   0
 -0.2060890548036269   7   6   0   0
 -2.5069263287899290   7   7   0   0