 &FCI NORB=  10,NELEC=10,MS2=0,
  ORBSYM=1,1,1,1,1,1,1,1,1,1,
  ISYM=1,
  ITGENERAL=1,
 &END
  0.6560194880204659   1   2   0   0
  0.4034580341490798   1   3   0   0
 -0.9044188315061648   1   4   0   0
  0.9844794172447587   1   5   0   0
  0.6700171367006178   1   6   0   0
  0.2872558862189996   1   7   0   0
  0.0669112509449305   1   8   0   0
 -0.6371701354909347   1   9   0   0
 -0.2400096153219021   1  10   0   0
 -0.6560194880204661   2   1   0   0
 -0.6502380778533499   2   3   0   0
 -0.5810878819558286   2   4   0   0
  0.0160035152081869   2   5   0   0
  0.4548668332895749   2   6   0   0
  0.9939697905567422   2   7   0   0
  0.0157484234363888   2   8   0   0
  1.3637433650880260   2   9   0   0
  0.0002410936077786   2  10   0   0
 -0.4034580341490833   3   1   0   0
  0.6502380778533496   3   2   0   0
  0.9055844597043501   3   4   0   0
 -0.8567171054746828   3   5   0   0
  0.1874825556577524   3   6   0   0
 -0.1572046257451001   3   7   0   0
  0.3334403406454018   3   8   0   0
  0.2654556312572574   3   9   0   0
  0.5713318240026279   3  10   0   0
  0.9044188315061357   4   1   0   0
  0.5810878819558267   4   2   0   0
 -0.9055844597043238   4   3   0   0
 -0.4100699050907228   4   5   0   0
 -1.7248481349451992   4   6   0   0
 -0.2277653450110558   4   7   0   0
  0.1112741647789084   4   8   0   0
  0.7691982783707008   4   9   0   0
 -0.6642729928972885   4  10   0   0
 -0.9844794172447583   5   1   0   0
 -0.0160035152081848   5   2   0   0
  0.8567171054746829   5   3   0   0
  0.4100699050907225   5   4   0   0
 -0.4094017000504873   5   6   0   0
  0.7551785947075570   5   7   0   0
  0.0069347136372970   5   8   0   0
  0.3335277759641766   5   9   0   0
 -1.1447138846684872   5  10   0   0
 -0.6700171367006258   6   1   0   0
 -0.4548668332895711   6   2   0   0
 -0.1874825556577684   6   3   0   0
  1.7248481349452462   6   4   0   0
  0.4094017000504868   6   5   0   0
 -0.4531591072904847   6   7   0   0
  0.5190201264617779   6   8   0   0
  0.7121753034432414   6   9   0   0
  0.9687464414259983   6  10   0   0
 -0.2872558862189928   7   1   0   0
 -0.9939697905567415   7   2   0   0
  0.1572046257450904   7   3   0   0
  0.2277653450110586   7   4   0   0
 -0.7551785947075590   7   5   0   0
  0.4531591072904723   7   6   0   0
  0.2830933024197921   7   8   0   0
 -0.1110310299905172   7   9   0   0
  0.3270102994450497   7  10   0   0
 -0.0669112509449314   8   1   0   0
 -0.0157484234363902   8   2   0   0
 -0.3334403406454040   8   3   0   0
 -0.1112741647789083   8   4   0   0
 -0.0069347136372969   8   5   0   0
 -0.5190201264617803   8   6   0   0
 -0.2830933024197917   8   7   0   0
 -1.0777777717449506   8   9   0   0
  0.7667771197845131   8  10   0   0
  0.6371701354909309   9   1   0   0
 -1.3637433650880333   9   2   0   0
 -0.2654556312572410   9   3   0   0
 -0.7691982783707201   9   4   0   0
 -0.3335277759641760   9   5   0   0
 -0.7121753034432188   9   6   0   0
  0.1110310299905242   9   7   0   0
  1.0777777717449530   9   8   0   0
 -0.6722940263729893   9  10   0   0
  0.2400096153218837  10   1   0   0
 -0.0002410936077795  10   2   0   0
 -0.5713318240026185  10   3   0   0
  0.6642729928973138  10   4   0   0
  1.1447138846684894  10   5   0   0
 -0.9687464414259809  10   6   0   0
 -0.3270102994450525  10   7   0   0
 -0.7667771197845120  10   8   0   0
  0.6722940263729882  10   9   0   0
  0.0000000000000000   0   0   0   0
