 &FCI NORB=  10,NELEC=10,MS2=0,
  ORBSYM=1,1,1,1,1,1,1,1,1,1,
  ISYM=1,
 &END
  0.3477077076410523   1   1   1   1
  0.1227399919054636   2   1   2   1
  0.2779496469852171   2   2   1   1
  0.3021586527992989   2   2   2   2
 -0.0687027246641784   3   1   1   1
  0.0218574031197455   3   1   2   2
  0.0873278950803474   3   1   3   1
  0.0773353545931176   3   2   2   1
  0.1026215239409960   3   2   3   2
  0.2713354354042860   3   3   1   1
  0.2647388624542950   3   3   2   2
 -0.0074996811907337   3   3   3   1
  0.2876940462719287   3   3   3   3
  0.0483452735340644   4   1   2   1
 -0.0192016949161218   4   1   3   2
  0.0649279517042751   4   1   4   1
  0.0723203293575213   4   2   1   1
  0.0185323651964778   4   2   2   2
 -0.0522829063416786   4   2   3   1
 -0.0140199186147431   4   2   3   3
  0.0811621721838912   4   2   4   2
 -0.0733441497043798   4   3   2   1
 -0.0808223396732068   4   3   3   2
  0.0043587274887327   4   3   4   1
  0.0991738708061223   4   3   4   3
  0.2646697952374503   4   4   1   1
  0.2683641748237020   4   4   2   2
  0.0025255481601615   4   4   3   1
  0.2649755284811417   4   4   3   3
  0.0025177146773588   4   4   4   2
  0.2808061800644622   4   4   4   4
 -0.0018847350092797   5   1   1   1
  0.0383577635192128   5   1   2   2
  0.0384665856463318   5   1   3   1
 -0.0221285666409287   5   1   3   3
  0.0242185440866392   5   1   4   2
  0.0061598664212403   5   1   4   4
  0.0620030199743791   5   1   5   1
  0.0511421609201965   5   2   2   1
  0.0049762861186267   5   2   3   2
  0.0466940369383337   5   2   4   1
  0.0180476996914905   5   2   4   3
  0.0647892336495352   5   2   5   2
  0.0757180734708656   5   3   1   1
  0.0134364960717988   5   3   2   2
 -0.0606160677889138   5   3   3   1
  0.0103689025429177   5   3   3   3
  0.0600556637610089   5   3   4   2
 -0.0112919027919631   5   3   4   4
 -0.0065848495546104   5   3   5   1
  0.0774916274268974   5   3   5   3
  0.0871159449715096   5   4   2   1
  0.0829831136569226   5   4   3   2
  0.0086557863387836   5   4   4   1
 -0.0831246649960599   5   4   4   3
  0.0124932756598251   5   4   5   2
  0.1010799525313004   5   4   5   4
  0.2918223690762949   5   5   1   1
  0.2735855730476244   5   5   2   2
 -0.0191723280824623   5   5   3   1
  0.2695836823911130   5   5   3   3
  0.0242271963955479   5   5   4   2
  0.2683617711517424   5   5   4   4
  0.0029299470719129   5   5   5   1
  0.0269756915299333   5   5   5   3
  0.2899845689585450   5   5   5   5
 -0.0040621978985366   6   1   2   1
  0.0296891320800745   6   1   3   2
 -0.0299180137995691   6   1   4   1
  0.0148566838313378   6   1   4   3
  0.0133376391169684   6   1   5   2
  0.0022988075222621   6   1   5   4
  0.0529084167042919   6   1   6   1
 -0.0045036938293199   6   2   1   1
  0.0368001523058149   6   2   2   2
  0.0393444125481698   6   2   3   1
  0.0054066728293440   6   2   3   3
 -0.0050495348727180   6   2   4   2
 -0.0093226832171749   6   2   4   4
  0.0323875924659026   6   2   5   1
  0.0075483336689936   6   2   5   3
  0.0043667028894466   6   2   5   5
  0.0531288392712727   6   2   6   2
  0.0517319044838784   6   3   2   1
  0.0096862601359104   6   3   3   2
  0.0413032688854213   6   3   4   1
 -0.0045222818946173   6   3   4   3
  0.0415791793389139   6   3   5   2
 -0.0007847585747585   6   3   5   4
 -0.0052154971425210   6   3   6   1
  0.0590246263067257   6   3   6   3
 -0.0707912418297838   6   4   1   1
 -0.0155309552163079   6   4   2   2
  0.0534415077076535   6   4   3   1
 -0.0111491276010938   6   4   3   3
 -0.0538618792788104   6   4   4   2
 -0.0057030789330728   6   4   4   4
  0.0034935546968997   6   4   5   1
 -0.0543747988026539   6   4   5   3
 -0.0117922711809612   6   4   5   5
  0.0081836972545262   6   4   6   2
  0.0672836842123385   6   4   6   4
  0.0688914090346429   6   5   2   1
  0.0666159359395456   6   5   3   2
  0.0054932492200461   6   5   4   1
 -0.0664394324868479   6   5   4   3
  0.0077638004631538   6   5   5   2
  0.0685660993460959   6   5   5   4
  0.0015200590597081   6   5   6   1
  0.0119985701534206   6   5   6   3
  0.0780253320456046   6   5   6   5
  0.2947086640183594   6   6   1   1
  0.2762718561543931   6   6   2   2
 -0.0192496264873929   6   6   3   1
  0.2717982471201166   6   6   3   3
  0.0244351679262511   6   6   4   2
  0.2699551445146829   6   6   4   4
  0.0031131801509680   6   6   5   1
  0.0267395841159338   6   6   5   3
  0.2845814420709858   6   6   5   5
  0.0042682710235452   6   6   6   2
 -0.0195047387145626   6   6   6   4
  0.2940207199315825   6   6   6   6
  0.0010061243423278   7   1   1   1
 -0.0016662744849675   7   1   2   2
 -0.0024076319501546   7   1   3   1
 -0.0231692713317426   7   1   3   3
  0.0232063857154028   7   1   4   2
  0.0135791192667866   7   1   4   4
  0.0221028238261565   7   1   5   1
 -0.0136299593635943   7   1   5   3
 -0.0020164928031888   7   1   5   5
 -0.0209753538045805   7   1   6   2
 -0.0033948306184302   7   1   6   4
 -0.0018207826313710   7   1   6   6
  0.0372530251285423   7   1   7   1
 -0.0028333713189818   7   2   2   1
 -0.0306570187405029   7   2   3   2
  0.0255830749304433   7   2   4   1
  0.0040046982648651   7   2   4   3
  0.0008145321036501   7   2   5   2
  0.0100012417631047   7   2   5   4
 -0.0322278104961751   7   2   6   1
 -0.0173559895512757   7   2   6   3
 -0.0056249539735789   7   2   6   5
  0.0461618844008054   7   2   7   2
 -0.0056552484567539   7   3   1   1
 -0.0401108116648090   7   3   2   2
 -0.0330749825391246   7   3   3   1
 -0.0074016766178461   7   3   3   3
 -0.0013685807393802   7   3   4   2
 -0.0057880676583075   7   3   4   4
 -0.0335899511559262   7   3   5   1
  0.0005979761514234   7   3   5   3
  0.0052277256573211   7   3   5   5
 -0.0369282071646483   7   3   6   2
  0.0150658420587915   7   3   6   4
 -0.0022218666950676   7   3   6   6
  0.0053389917809949   7   3   7   1
  0.0506012469959667   7   3   7   3
  0.0431935654052723   7   4   2   1
  0.0008167549329113   7   4   3   2
  0.0417038004182899   7   4   4   1
  0.0043272179302679   7   4   4   3
  0.0428397521527833   7   4   5   2
  0.0024344467730308   7   4   5   4
 -0.0046946932752535   7   4   6   1
  0.0449380681382522   7   4   6   3
 -0.0184638740723208   7   4   6   5
 -0.0034224954010289   7   4   7   2
  0.0649999723599504   7   4   7   4
  0.0728533406832518   7   5   1   1
  0.0162188893961332   7   5   2   2
 -0.0549776398777713   7   5   3   1
  0.0122877035368628   7   5   3   3
  0.0552730027466494   7   5   4   2
  0.0072307384822768   7   5   4   4
 -0.0038249321752565   7   5   5   1
  0.0563342044413983   7   5   5   3
  0.0196787180183765   7   5   5   5
 -0.0083122871270372   7   5   6   2
 -0.0628717077314519   7   5   6   4
  0.0159420252125027   7   5   6   6
  0.0032434757217223   7   5   7   1
 -0.0091723743092083   7   5   7   3
  0.0676971835397987   7   5   7   5
 -0.0897603374309268   7   6   2   1
 -0.0849672783501905   7   6   3   2
 -0.0091648761281188   7   6   4   1
  0.0845793191757288   7   6   4   3
 -0.0128296897282592   7   6   5   2
 -0.0962139079385582   7   6   5   4
 -0.0022508929850130   7   6   6   1
 -0.0071319464583178   7   6   6   3
 -0.0694369314872313   7   6   6   5
 -0.0031656187834800   7   6   7   2
 -0.0050919514999351   7   6   7   4
  0.1030786599324616   7   6   7   6
  0.2744045006374637   7   7   1   1
  0.2768185980556771   7   7   2   2
  0.0010056161550736   7   7   3   1
  0.2727331478059605   7   7   3   3
  0.0049965688579382   7   7   4   2
  0.2817577194321165   7   7   4   4
  0.0062335359710451   7   7   5   1
 -0.0023488512746528   7   7   5   3
  0.2754817973999484   7   7   5   5
 -0.0021733044922019   7   7   6   2
 -0.0100142838777463   7   7   6   4
  0.2799410622394002   7   7   6   6
  0.0074559672042106   7   7   7   1
 -0.0097649840766030   7   7   7   3
  0.0103152220914269   7   7   7   5
  0.2952119127397551   7   7   7   7
 -0.0019829013035389   8   1   2   1
  0.0005448897659548   8   1   3   2
 -0.0008917725763816   8   1   4   1
  0.0193762654708906   8   1   4   3
  0.0191621434475058   8   1   5   2
  0.0129517732607847   8   1   5   4
  0.0221345454796287   8   1   6   1
 -0.0178748230998795   8   1   6   3
 -0.0031778246753852   8   1   6   5
  0.0122270101031238   8   1   7   2
 -0.0040157662196681   8   1   7   4
 -0.0071128962863140   8   1   7   6
  0.0349148069634257   8   1   8   1
 -0.0027388618460388   8   2   1   1
 -0.0005618059413431   8   2   2   2
  0.0018774738228900   8   2   3   1
 -0.0248280633917087   8   2   3   3
  0.0227270335302867   8   2   4   2
 -0.0020528148952275   8   2   4   4
  0.0243408022331213   8   2   5   1
  0.0007009115939733   8   2   5   3
  0.0098494948325624   8   2   5   5
 -0.0009701770287245   8   2   6   2
  0.0151938176291926   8   2   6   4
  0.0032778336942570   8   2   6   6
  0.0209945354879486   8   2   7   1
  0.0156025471118519   8   2   7   3
 -0.0100871141612873   8   2   7   5
 -0.0046416590301042   8   2   7   7
  0.0363926649305982   8   2   8   2
  0.0014671926041220   8   3   2   1
 -0.0277923337854408   8   3   3   2
  0.0267195362689721   8   3   4   1
  0.0029172108776628   8   3   4   3
  0.0022890968299612   8   3   5   2
 -0.0004295266873653   8   3   5   4
 -0.0317380040329189   8   3   6   1
 -0.0009538387101900   8   3   6   3
  0.0207038061249626   8   3   6   5
  0.0313007745080789   8   3   7   2
 -0.0220322347303319   8   3   7   4
  0.0024629606154452   8   3   7   6
 -0.0014881912872423   8   3   8   1
  0.0533063720900639   8   3   8   3
  0.0068817914102800   8   4   1   1
  0.0413269812950198   8   4   2   2
  0.0329062990027611   8   4   3   1
  0.0081069716030726   8   4   3   3
  0.0023990058446051   8   4   4   2
  0.0078513563298265   8   4   4   4
  0.0344247719425848   8   4   5   1
 -0.0000705256123463   8   4   5   3
  0.0018897004807770   8   4   5   5
  0.0371183089174771   8   4   6   2
 -0.0103405526355784   8   4   6   4
 -0.0015292444947117   8   4   6   6
 -0.0047840946832138   8   4   7   1
 -0.0459670409435723   8   4   7   3
  0.0130979359533686   8   4   7   5
  0.0098359019018968   8   4   7   7
 -0.0106195922279201   8   4   8   2
  0.0496860377132456   8   4   8   4
  0.0535260939569099   8   5   2   1
  0.0095196806943746   8   5   3   2
  0.0435863321800428   8   5   4   1
 -0.0047872115732887   8   5   4   3
  0.0440723649323422   8   5   5   2
  0.0058975607971422   8   5   5   4
 -0.0056351629638063   8   5   6   1
  0.0549482416552408   8   5   6   3
  0.0133527834893550   8   5   6   5
 -0.0112727381862661   8   5   7   2
  0.0453344171400183   8   5   7   4
 -0.0040560157840181   8   5   7   6
 -0.0129487210763678   8   5   8   1
  0.0011747409981693   8   5   8   3
  0.0599848199831304   8   5   8   5
  0.0785978546157703   8   6   1   1
  0.0130278817564329   8   6   2   2
 -0.0638011646917482   8   6   3   1
  0.0107155171068539   8   6   3   3
  0.0622744287718198   8   6   4   2
 -0.0046512127653617   8   6   4   4
 -0.0071412516043905   8   6   5   1
  0.0737639352912907   8   6   5   3
  0.0284868100302902   8   6   5   5
 -0.0001306033141596   8   6   6   2
 -0.0564753695140461   8   6   6   4
  0.0293992409834592   8   6   6   6
 -0.0075482762130294   8   6   7   1
  0.0031282480401446   8   6   7   3
  0.0576537732645688   8   6   7   5
 -0.0051673507020334   8   6   7   7
  0.0018070193738946   8   6   8   2
 -0.0028259958200243   8   6   8   4
  0.0804882809561250   8   6   8   6
  0.0782909257119573   8   7   2   1
  0.0844286516190367   8   7   3   2
 -0.0024444965112607   8   7   4   1
 -0.0962680701038228   8   7   4   3
 -0.0101231328633968   8   7   5   2
  0.0855853416382185   8   7   5   4
 -0.0088439745318934   8   7   6   1
  0.0080765782725363   8   7   6   3
  0.0690216423340057   8   7   6   5
 -0.0066361038125584   8   7   7   2
 -0.0012472259829744   8   7   7   4
 -0.0886934388946028   8   7   7   6
 -0.0165290605490132   8   7   8   1
 -0.0046945281927532   8   7   8   3
  0.0083179086933209   8   7   8   5
  0.1038743013936256   8   7   8   7
  0.2873374275219283   8   8   1   1
  0.2784087651048747   8   8   2   2
 -0.0101403080381079   8   8   3   1
  0.2954045988222615   8   8   3   3
 -0.0051561569225361   8   8   4   2
  0.2768179828707981   8   8   4   4
 -0.0164852929465733   8   8   5   1
  0.0152835611269337   8   8   5   3
  0.2837370981214585   8   8   5   5
  0.0066677043832820   8   8   6   2
 -0.0159865756186651   8   8   6   4
  0.2878709200115652   8   8   6   6
 -0.0205221937752141   8   8   7   1
 -0.0097076032403535   8   8   7   3
  0.0169929725630483   8   8   7   5
  0.2883579134991894   8   8   7   7
 -0.0230269194844181   8   8   8   2
  0.0104244349290985   8   8   8   4
  0.0159789228841797   8   8   8   6
  0.3170502574738137   8   8   8   8
 -0.0015164490469212   9   1   1   1
 -0.0003607317698134   9   1   2   2
  0.0007531818776503   9   1   3   1
  0.0005164412236499   9   1   3   3
 -0.0008408243202288   9   1   4   2
 -0.0157874403989216   9   1   4   4
 -0.0017311793371093   9   1   5   1
  0.0162624404936996   9   1   5   3
  0.0118956166158575   9   1   5   5
  0.0183912028846010   9   1   6   2
  0.0164429266690285   9   1   6   4
  0.0064567501930918   9   1   6   6
 -0.0182963023964399   9   1   7   1
  0.0112900485220225   9   1   7   3
 -0.0122313590425666   9   1   7   5
 -0.0136475512514155   9   1   7   7
  0.0128584192975876   9   1   8   2
 -0.0077807719744365   9   1   8   4
  0.0130831962097727   9   1   8   6
  0.0002984498866935   9   1   8   8
  0.0315748379648302   9   1   9   1
 -0.0001745012651267   9   2   2   1
  0.0015609222812513   9   2   3   2
 -0.0005718484643942   9   2   4   1
  0.0188592353601184   9   2   4   3
  0.0185944890981682   9   2   5   2
 -0.0000670808552309   9   2   5   4
  0.0215854483477687   9   2   6   1
 -0.0014857045785504   9   2   6   3
  0.0227642499189078   9   2   6   5
 -0.0034374974811157   9   2   7   2
 -0.0240944419354990   9   2   7   4
  0.0018373522541454   9   2   7   6
  0.0194404556409030   9   2   8   1
  0.0212550643298624   9   2   8   3
  0.0000072884847740   9   2   8   5
 -0.0165574480190405   9   2   8   7
  0.0445046395760408   9   2   9   2
 -0.0034415667677417   9   3   1   1
 -0.0015556862488647   9   3   2   2
  0.0017316829580012   9   3   3   1
 -0.0254434440803245   9   3   3   3
  0.0222034245601500   9   3   4   2
 -0.0033616787938707   9   3   4   4
  0.0237641816104225   9   3   5   1
  0.0001887318918801   9   3   5   3
  0.0043860268188343   9   3   5   5
 -0.0014712330646606   9   3   6   2
  0.0114425845985681   9   3   6   4
  0.0068916388348698   9   3   6   6
  0.0210446204150885   9   3   7   1
  0.0121405740007040   9   3   7   3
 -0.0135585852039543   9   3   7   5
 -0.0047160175006631   9   3   7   7
  0.0329485200375425   9   3   8   2
 -0.0140421910647876   9   3   8   4
  0.0019340311521932   9   3   8   6
 -0.0243233098572282   9   3   8   8
  0.0101130453236797   9   3   9   1
  0.0353518202522698   9   3   9   3
  0.0040530888648486   9   4   2   1
  0.0310180048154640   9   4   3   2
 -0.0245067807959771   9   4   4   1
 -0.0046844307281132   9   4   4   3
  0.0005110835279834   9   4   5   2
 -0.0044016130904239   9   4   5   4
  0.0324380421715528   9   4   6   1
  0.0135013408684383   9   4   6   3
  0.0064828879692527   9   4   6   5
 -0.0419982468683333   9   4   7   2
  0.0035030675215917   9   4   7   4
  0.0060676369506887   9   4   7   6
 -0.0082206146576764   9   4   8   1
 -0.0309895902828554   9   4   8   3
  0.0150237743533164   9   4   8   5
  0.0066141893386891   9   4   8   7
  0.0044268569670376   9   4   9   2
  0.0449815489741287   9   4   9   4
 -0.0036854298479186   9   5   1   1
  0.0381642118925154   9   5   2   2
  0.0399620350027636   9   5   3   1
  0.0049054579665067   9   5   3   3
 -0.0038429179223181   9   5   4   2
 -0.0035476201612325   9   5   4   4
  0.0348732483969732   9   5   5   1
  0.0026355393001354   9   5   5   3
  0.0053714611400346   9   5   5   5
  0.0492876516374189   9   5   6   2
  0.0084188109898618   9   5   6   4
  0.0057312319899598   9   5   6   6
 -0.0156404235651391   9   5   7   1
 -0.0372089889544819   9   5   7   3
 -0.0091288669408534   9   5   7   5
 -0.0046229652092072   9   5   7   7
  0.0006757973299854   9   5   8   2
  0.0379054367134081   9   5   8   4
  0.0029770899443155   9   5   8   6
  0.0070985151002797   9   5   8   8
  0.0161168076791144   9   5   9   1
  0.0003149202090999   9   5   9   3
  0.0535974153744750   9   5   9   5
  0.0526562143107023   9   6   2   1
  0.0036956822342761   9   6   3   2
  0.0492431331249373   9   6   4   1
  0.0133316971577214   9   6   4   3
  0.0618006458474156   9   6   5   2
  0.0129079337626295   9   6   5   4
  0.0069925730689357   9   6   6   1
  0.0435808253091992   9   6   6   3
  0.0084537805942790   9   6   6   5
  0.0027779101804942   9   6   7   2
  0.0444712342929035   9   6   7   4
 -0.0142867454915265   9   6   7   6
  0.0157956148285460   9   6   8   1
  0.0044578723255043   9   6   8   3
  0.0456465827763980   9   6   8   5
 -0.0133046553359240   9   6   8   7
  0.0165157532813708   9   6   9   2
 -0.0017807546526817   9   6   9   4
  0.0679849046624839   9   6   9   6
 -0.0764423713611206   9   7   1   1
 -0.0178885826646235   9   7   2   2
  0.0570286670133092   9   7   3   1
  0.0088570695194495   9   7   3   3
 -0.0800694748289203   9   7   4   2
 -0.0038862153017706   9   7   4   4
 -0.0182433816314830   9   7   5   1
 -0.0629709709681217   9   7   5   3
 -0.0264010485377620   9   7   5   5
  0.0076246810249635   9   7   6   2
  0.0571693689673629   9   7   6   4
 -0.0270703056729683   9   7   6   6
 -0.0212746257351880   9   7   7   1
 -0.0006705823292285   9   7   7   3
 -0.0587433028123339   9   7   7   5
 -0.0060922468574737   9   7   7   7
 -0.0207348169219208   9   7   8   2
  0.0000485568637268   9   7   8   4
 -0.0670595243247842   9   7   8   6
  0.0072510492975651   9   7   8   8
  0.0011516690869950   9   7   9   1
 -0.0213212888325483   9   7   9   3
  0.0069894016348187   9   7   9   5
  0.0888072718940411   9   7   9   7
  0.0839066079319004   9   8   2   1
  0.1046682163756208   9   8   3   2
 -0.0146047598406317   9   8   4   1
 -0.0852527573467391   9   8   4   3
  0.0076007091786255   9   8   5   2
  0.0883928376343840   9   8   5   4
  0.0276124542269529   9   8   6   1
  0.0126039839259671   9   8   6   3
  0.0713738476333779   9   8   6   5
 -0.0298830839654330   9   8   7   2
  0.0032183136455809   9   8   7   4
 -0.0917845892952125   9   8   7   6
  0.0001890066215584   9   8   8   1
 -0.0275605209558615   9   8   8   3
  0.0128136153080184   9   8   8   5
  0.0913121534940300   9   8   8   7
  0.0014991625603912   9   8   9   2
  0.0323272856061219   9   8   9   4
  0.0068810453435579   9   8   9   6
  0.1175807053558062   9   8   9   8
  0.2966739745259733   9   9   1   1
  0.3184302425880437   9   9   2   2
  0.0190382359938833   9   9   3   1
  0.2817981997159384   9   9   3   3
  0.0212440112439032   9   9   4   2
  0.2858948550405950   9   9   4   4
  0.0384332297163881   9   9   5   1
  0.0164648633669260   9   9   5   3
  0.2931907601748015   9   9   5   5
  0.0376294090814167   9   9   6   2
 -0.0186085048113709   9   9   6   4
  0.2976697345974393   9   9   6   6
 -0.0019524687740992   9   9   7   1
 -0.0421328038554165   9   9   7   3
  0.0197220494969520   9   9   7   5
  0.2991504160304576   9   9   7   7
 -0.0010762831293001   9   9   8   2
  0.0444816267078678   9   9   8   4
  0.0164954286234450   9   9   8   6
  0.3034641030666742   9   9   8   8
 -0.0004480104538772   9   9   9   1
 -0.0022627749222046   9   9   9   3
  0.0418190031032566   9   9   9   5
 -0.0214699484960581   9   9   9   7
  0.3531712485212071   9   9   9   9
 -0.0006845748872205  10   1   2   1
 -0.0005080464813913  10   1   3   2
  0.0002774309896949  10   1   4   1
  0.0003108336928123  10   1   4   3
  0.0013499238187390  10   1   5   2
  0.0131148836270270  10   1   5   4
  0.0007709229318291  10   1   6   1
 -0.0155090980888829  10   1   6   3
 -0.0261318983287521  10   1   6   5
  0.0153850126747678  10   1   7   2
  0.0209942908249353  10   1   7   4
 -0.0117307807829498  10   1   7   6
  0.0158738357300509  10   1   8   1
 -0.0233224608881700  10   1   8   3
 -0.0144772897156684  10   1   8   5
 -0.0005739034620987  10   1   8   7
 -0.0251398489316067  10   1   9   2
 -0.0143530397023679  10   1   9   4
  0.0012429334225340  10   1   9   6
 -0.0006334683987613  10   1   9   8
  0.0424241884054081  10   1  10   1
  0.0018855000811985  10   2   1   1
  0.0007320322393642  10   2   2   2
 -0.0008479531519294  10   2   3   1
  0.0000956000816182  10   2   3   3
  0.0008921666261393  10   2   4   2
  0.0158162599226875  10   2   4   4
  0.0015634854394520  10   2   5   1
 -0.0152073079704466  10   2   5   3
 -0.0084911202215209  10   2   5   5
 -0.0175762629441713  10   2   6   2
 -0.0141040578784901  10   2   6   4
 -0.0091861059340142  10   2   6   6
  0.0175009325748368  10   2   7   1
 -0.0090117909005771  10   2   7   3
  0.0148068259809840  10   2   7   5
  0.0143985483092285  10   2   7   7
 -0.0109043876507213  10   2   8   2
  0.0100315628556316  10   2   8   4
 -0.0139906700844365  10   2   8   6
  0.0000283190071747  10   2   8   8
 -0.0296668459869233  10   2   9   1
 -0.0120177876130533  10   2   9   3
 -0.0168274100263638  10   2   9   5
 -0.0010948651490317  10   2   9   7
  0.0008459563996380  10   2   9   9
  0.0306283275728463  10   2  10   2
  0.0023821422126860  10   3   2   1
  0.0002685467453131  10   3   3   2
  0.0007757996134169  10   3   4   1
 -0.0187240613093663  10   3   4   3
 -0.0175264062694090  10   3   5   2
 -0.0091962797426823  10   3   5   4
 -0.0204388748802552  10   3   6   1
  0.0148817086293868  10   3   6   3
  0.0032424511316819  10   3   6   5
 -0.0098330288965211  10   3   7   2
  0.0042777715816864  10   3   7   4
  0.0096881300995210  10   3   7   6
 -0.0316214829905795  10   3   8   1
  0.0009966531062523  10   3   8   3
  0.0157054975899767  10   3   8   5
  0.0180017518268245  10   3   8   7
 -0.0190152904643426  10   3   9   2
  0.0105802861513016  10   3   9   4
 -0.0169493190658216  10   3   9   6
  0.0004197538635240  10   3   9   8
 -0.0148630737723715  10   3  10   1
  0.0327065595321159  10   3  10   3
  0.0007596971710978  10   4   1   1
 -0.0027229881530820  10   4   2   2
 -0.0032377239168937  10   4   3   1
 -0.0225276632634424  10   4   3   3
  0.0223740683984656  10   4   4   2
  0.0096146379299733  10   4   4   4
  0.0200991694184627  10   4   5   1
 -0.0099857499032745  10   4   5   3
 -0.0024780954434356  10   4   5   5
 -0.0183666766194107  10   4   6   2
 -0.0035923043194229  10   4   6   4
 -0.0024739604848883  10   4   6   6
  0.0337354728437059  10   4   7   1
  0.0056444489161306  10   4   7   3
  0.0037532353994524  10   4   7   5
  0.0099295898595796  10   4   7   7
  0.0203436986219975  10   4   8   2
 -0.0054660544639620  10   4   8   4
 -0.0101962371979084  10   4   8   6
 -0.0227428089688310  10   4   8   8
 -0.0167918654980563  10   4   9   1
  0.0206604602115856  10   4   9   3
 -0.0189682995476448  10   4   9   5
 -0.0229975928214616  10   4   9   7
 -0.0034919768797411  10   4   9   9
  0.0171279767915481  10   4  10   2
  0.0355830806894906  10   4  10   4
  0.0032429706561614  10   5   2   1
 -0.0289206151399617  10   5   3   2
  0.0286719863284844  10   5   4   1
 -0.0113686717750942  10   5   4   3
 -0.0106621235253696  10   5   5   2
 -0.0027919155644779  10   5   5   4
 -0.0492300222293939  10   5   6   1
  0.0047847578918867  10   5   6   3
 -0.0020481057942205  10   5   6   5
  0.0316059535437177  10   5   7   2
  0.0046206350278437  10   5   7   4
  0.0030422914686844  10   5   7   6
 -0.0203088856627853  10   5   8   1
  0.0316108523163905  10   5   8   3
  0.0057715001079690  10   5   8   5
  0.0117180417986941  10   5   8   7
 -0.0207488358535036  10   5   9   2
 -0.0330122373684165  10   5   9   4
 -0.0102658307627676  10   5   9   6
 -0.0311812927605823  10   5   9   8
 -0.0007132682790924  10   5  10   1
  0.0207503784832158  10   5  10   3
  0.0529296724875354  10   5  10   5
  0.0006340623811929  10   6   1   1
 -0.0386872688808441  10   6   2   2
 -0.0376194830855541  10   6   3   1
  0.0186961592169192  10   6   3   3
 -0.0220359964369656  10   6   4   2
 -0.0067961552490799  10   6   4   4
 -0.0593400251865110  10   6   5   1
  0.0059804823449086  10   6   5   3
 -0.0039369193485559  10   6   5   5
 -0.0329837438737971  10   6   6   2
 -0.0032043571453389  10   6   6   4
 -0.0042487447850977  10   6   6   6
 -0.0203427060822068  10   6   7   1
  0.0342072519499205  10   6   7   3
  0.0036383097206329  10   6   7   5
 -0.0075937247958035  10   6   7   7
 -0.0233601330053330  10   6   8   2
 -0.0352637955190147  10   6   8   4
  0.0073047479311923  10   6   8   6
  0.0195331519197678  10   6   8   8
  0.0015435864403283  10   6   9   1
 -0.0236249456248674  10   6   9   3
 -0.0359304146477680  10   6   9   5
  0.0224617367386124  10   6   9   7
 -0.0434872154598083  10   6   9   9
 -0.0014779344171457  10   6  10   2
 -0.0209008756965274  10   6  10   4
  0.0651189840005104  10   6  10   6
  0.0499186220801346  10   7   2   1
 -0.0176270113744629  10   7   3   2
  0.0653612130415163  10   7   4   1
  0.0042212911942678  10   7   4   3
  0.0485348297477243  10   7   5   2
  0.0091211938368018  10   7   5   4
 -0.0294334726493705  10   7   6   1
  0.0436352679291110  10   7   6   3
  0.0059274232197691  10   7   6   5
  0.0252990981867251  10   7   7   2
  0.0442912277306566  10   7   7   4
 -0.0100426985298102  10   7   7   6
 -0.0010794424984123  10   7   8   1
  0.0273504193862811  10   7   8   3
  0.0466732613611711  10   7   8   5
 -0.0026278300218235  10   7   8   7
 -0.0006966710928806  10   7   9   2
 -0.0260067268168942  10   7   9   4
  0.0536724109174338  10   7   9   6
 -0.0188752069835817  10   7   9   8
  0.0002409733987467  10   7  10   1
  0.0009556976459147  10   7  10   3
  0.0317452321301302  10   7  10   5
  0.0745463882287258  10   7  10   7
  0.0739383647033557  10   8   1   1
 -0.0209561247147340  10   8   2   2
 -0.0918057928591779  10   8   3   1
  0.0082023819602091  10   8   3   3
  0.0568413741615197  10   8   4   2
 -0.0023287168149806  10   8   4   4
 -0.0393715080117976  10   8   5   1
  0.0657143514404394  10   8   5   3
  0.0212840315692293  10   8   5   5
 -0.0412319198789927  10   8   6   2
 -0.0584967624732221  10   8   6   4
  0.0215653001248100  10   8   6   6
  0.0028188962523086  10   8   7   1
  0.0349696679206872  10   8   7   3
  0.0606285627330028  10   8   7   5
 -0.0007435056016222  10   8   7   7
 -0.0017684407798782  10   8   8   2
 -0.0355765589769958  10   8   8   4
  0.0710816393336341  10   8   8   6
  0.0112437734244188  10   8   8   8
 -0.0009385773439598  10   8   9   1
 -0.0015724002926029  10   8   9   3
 -0.0445520352192975  10   8   9   5
 -0.0647663648219973  10   8   9   7
 -0.0244036883458073  10   8   9   9
  0.0010612350860720  10   8  10   2
  0.0041190053965028  10   8  10   4
  0.0428817352504094  10   8  10   6
  0.1074184861104087  10   8  10   8
 -0.1327266964391972  10   9   2   1
 -0.0852631426565470  10   9   3   2
 -0.0513985161993180  10   9   4   1
  0.0808818224604254  10   9   4   3
 -0.0552936418660324  10   9   5   2
 -0.0964537480823699  10   9   5   4
  0.0038143974084585  10   9   6   1
 -0.0566074912486143  10   9   6   3
 -0.0767483990484245  10   9   6   5
  0.0036395511865885  10   9   7   2
 -0.0479353107731448  10   9   7   4
  0.1007734803287590  10   9   7   6
  0.0021978020966941  10   9   8   1
 -0.0010102716125781  10   9   8   3
 -0.0605302593126186  10   9   8   5
 -0.0890639357538586  10   9   8   7
  0.0002873213234792  10   9   9   2
 -0.0053558410328181  10   9   9   4
 -0.0604594782152183  10   9   9   6
 -0.0968075786144471  10   9   9   8
  0.0008110808322587  10   9  10   1
 -0.0029532961239666  10   9  10   3
 -0.0033337257482881  10   9  10   5
 -0.0583568430755282  10   9  10   7
  0.1569122179478691  10   9  10   9
  0.3736995043090208  10  10   1   1
  0.2993117011165438  10  10   2   2
 -0.0741052080005281  10  10   3   1
  0.2922045949163345  10  10   3   3
  0.0791459929279651  10  10   4   2
  0.2858412207006848  10  10   4   4
 -0.0013717656180691  10  10   5   1
  0.0833556596209691  10  10   5   3
  0.3173061657233888  10  10   5   5
 -0.0042279854821401  10  10   6   2
 -0.0784494851712455  10  10   6   4
  0.3221778144401197  10  10   6   6
  0.0010202325188623  10  10   7   1
 -0.0068023689060496  10  10   7   3
  0.0821089712943140  10  10   7   5
  0.3015455392046171  10  10   7   7
 -0.0029659738320746  10  10   8   2
  0.0087183705283485  10  10   8   4
  0.0892830441565888  10  10   8   6
  0.3183730306674495  10  10   8   8
 -0.0016590533620601  10  10   9   1
 -0.0041357028124610  10  10   9   3
 -0.0036473811598835  10  10   9   5
 -0.0882287998378191  10  10   9   7
  0.3322028252647798  10  10   9   9
  0.0023159252179712  10  10  10   2
  0.0008755947241405  10  10  10   4
  0.0001480390364188  10  10  10   6
  0.0861154301360731  10  10  10   8
  0.4256603895892498  10  10  10  10
 -2.9465084236153607   1   1   0   0
 -2.7674832024038842   2   2   0   0
  0.1408903653633679   3   1   0   0
 -2.6357514284714716   3   3   0   0
 -0.2060890548036262   4   2   0   0
 -2.5069263287899282   4   4   0   0
 -0.0466414582237339   5   1   0   0
 -0.2327517084558021   5   3   0   0
 -2.4582792042124320   5   5   0   0
 -0.0691681898595168   6   2   0   0
  0.2533066365381429   6   4   0   0
 -2.3147812297035832   6   6   0   0
  0.0275102385656586   7   1   0   0
  0.1276513463965153   7   3   0   0
 -0.2109101744388220   7   5   0   0
 -2.0681445941463479   7   7   0   0
  0.0567984986193238   8   2   0   0
 -0.0936121357181133   8   4   0   0