 &FCI NORB=  10,NELEC=   2,MS2=   0,
  ORBSYM=1,5,1,5,3,2,1,6,7,5,
  ISYM=   1,
 &END
  0.5774017177583423   1   1   1   1
  0.1018258736354113   2   1   2   1
  0.4386265642193448   2   2   1   1
  0.3999257346586581   2   2   2   2
  0.1448050474062541   3   1   1   1
  0.0637616361985538   3   1   2   2
  0.1038796179177564   3   1   3   1
 -0.0029645464182364   3   2   2   1
  0.0350297503376576   3   2   3   2
  0.5177285800389912   3   3   1   1
  0.3999119085694280   3   3   2   2
  0.1299761966981343   3   3   3   1
  0.4862385342641934   3   3   3   3
 -0.0779165038920088   4   1   2   1
 -0.0374686256807181   4   1   3   2
  0.1052804862330243   4   1   4   1
 -0.1372180823778238   4   2   1   1
 -0.0737912319228849   4   2   2   2
 -0.0793621253436004   4   2   3   1
 -0.1158682569158407   4   2   3   3
  0.0818986678279029   4   2   4   2
 -0.1050936976354817   4   3   2   1
 -0.0202032019602791   4   3   3   2
  0.1096377129703583   4   3   4   1
  0.1420679453881856   4   3   4   3
  0.5580247016221839   4   4   1   1
  0.4448757864436603   4   4   2   2
  0.1607243687242084   4   4   3   1
  0.5183587273499470   4   4   3   3
 -0.1568812776565018   4   4   4   2
  0.6064739667299234   4   4   4   4
  0.1012696826545571   5   1   5   1
  0.0346575326903385   5   2   5   2
  0.0418224633188118   5   3   5   1
  0.0266505325331861   5   3   5   3
 -0.0360941828357305   5   4   5   2
  0.0451114268139016   5   4   5   4
  0.6273235175904457   5   5   1   1
  0.4670284206555717   5   5   2   2
  0.1676337162344609   5   5   3   1
  0.5478136407330301   5   5   3   3
 -0.1632009499103977   5   5   4   2
  0.6030432263065810   5   5   4   4
  0.7324865312130228   5   5   5   5
  0.1012696826545571   6   1   6   1
  0.0346575326903385   6   2   6   2
  0.0418224633188118   6   3   6   1
  0.0266505325331861   6   3   6   3
 -0.0360941828357305   6   4   6   2
  0.0451114268139016   6   4   6   4
  0.0321946521891928   6   5   6   5
  0.6273235175904457   6   6   1   1
  0.4670284206555717   6   6   2   2
  0.1676337162344609   6   6   3   1
  0.5478136407330301   6   6   3   3
 -0.1632009499103977   6   6   4   2
  0.6030432263065810   6   6   4   4
  0.6680972268346372   6   6   5   5
  0.7324865312130228   6   6   6   6
  0.0341642783947190   7   1   1   1
 -0.0239461940266855   7   1   2   2
  0.0275528974934491   7   1   3   1
  0.0322826619115036   7   1   3   3
  0.0066528742975245   7   1   4   2
 -0.0164069809666996   7   1   4   4
  0.0326126240397472   7   1   5   5
  0.0326126240397472   7   1   6   6
  0.0852094021873841   7   1   7   1
 -0.0705491170979899   7   2   2   1
 -0.0023350088945641   7   2   3   2
  0.0576511492106905   7   2   4   1
  0.0672341824262331   7   2   4   3
  0.0694940714722979   7   2   7   2
  0.0471308893849627   7   3   1   1
  0.0065711319642426   7   3   2   2
  0.0319505395880770   7   3   3   1
  0.0396966223188679   7   3   3   3
 -0.0046162572774508   7   3   4   2
  0.0118037725133127   7   3   4   4
  0.0498192314572638   7   3   5   5
  0.0498192314572638   7   3   6   6
  0.0560059367122214   7   3   7   1
  0.0487118457056969   7   3   7   3
  0.0756615532042010   7   4   2   1
  0.0105566921759180   7   4   3   2
 -0.0722453549083602   7   4   4   1
 -0.0833500380066965   7   4   4   3
 -0.0754131706109436   7   4   7   2
  0.0927015282164048   7   4   7   4
  0.0069843804082754   7   5   5   1
  0.0073514577879286   7   5   5   3
  0.0401311312193855   7   5   7   5
  0.0069843804082754   7   6   6   1
  0.0073514577879286   7   6   6   3
  0.0401311312193855   7   6   7   6
  0.6310565728637183   7   7   1   1
  0.4850189265876041   7   7   2   2
  0.1833427543457812   7   7   3   1
  0.5596794227063013   7   7   3   3
 -0.1746194485811159   7   7   4   2
  0.6313852902476085   7   7   4   4
  0.6849324703994994   7   7   5   5
  0.6849324703994994   7   7   6   6
  0.0131750123214350   7   7   7   1
  0.0533122034117666   7   7   7   3
  0.7650423349392350   7   7   7   7
  0.0455188747938873   8   1   6   2
 -0.0503206765700886   8   1   6   4
  0.0622094073741330   8   1   8   1
  0.0668491833969665   8   2   6   1
  0.0245200981803522   8   2   6   3
 -0.0120447004946295   8   2   7   6
  0.0518873126432009   8   2   8   2
  0.0178426539128276   8   3   6   2
 -0.0271871068160380   8   3   6   4
  0.0272226970793737   8   3   8   1
  0.0195576040822400   8   3   8   3
 -0.0705338669485272   8   4   6   1
 -0.0345847259599612   8   4   6   3
  0.0100395119277376   8   4   7   6
 -0.0516405523501221   8   4   8   2
  0.0610365381781316   8   4   8   4
  0.0274396165895219   8   5   8   5
  0.1372846227775435   8   6   2   1
  0.0205702444067458   8   6   3   2
 -0.1316240242834575   8   6   4   1
 -0.1481349221397725   8   6   4   3
 -0.0912162602194742   8   6   7   2
  0.1014637785305917   8   6   7   4
  0.2488578531349059   8   6   8   6
 -0.0225085065529328   8   7   6   2
  0.0219137357926648   8   7   6   4
 -0.0246037666718167   8   7   8   1
 -0.0076189943529126   8   7   8   3
  0.0310649935330621   8   7   8   7
  0.6115686086739988   8   8   1   1
  0.4726156982376043   8   8   2   2
  0.1569666305029933   8   8   3   1
  0.5349605483512154   8   8   3   3
 -0.1640376237774259   8   8   4   2
  0.6051162193495387   8   8   4   4
  0.6541634524649279   8   8   5   5
  0.7176296247399472   8   8   6   6
  0.0034550092515296   8   8   7   1
  0.0308948194726668   8   8   7   3
  0.6701146507115551   8   8   7   7
  0.7179977144086634   8   8   8   8
  0.0455188747938873   9   1   5   2
 -0.0503206765700886   9   1   5   4
  0.0622094073741330   9   1   9   1
  0.0668491833969665   9   2   5   1
  0.0245200981803522   9   2   5   3
 -0.0120447004946295   9   2   7   5
  0.0518873126432009   9   2   9   2
  0.0178426539128276   9   3   5   2
 -0.0271871068160380   9   3   5   4
  0.0272226970793737   9   3   9   1
  0.0195576040822400   9   3   9   3
 -0.0705338669485272   9   4   5   1
 -0.0345847259599612   9   4   5   3
  0.0100395119277376   9   4   7   5
 -0.0516405523501221   9   4   9   2
  0.0610365381781316   9   4   9   4
  0.1372846227775435   9   5   2   1
  0.0205702444067458   9   5   3   2
 -0.1316240242834575   9   5   4   1
 -0.1481349221397725   9   5   4   3
 -0.0912162602194742   9   5   7   2
  0.1014637785305917   9   5   7   4
  0.1939786199558621   9   5   8   6
  0.2488578531349059   9   5   9   5
  0.0274396165895219   9   6   8   5
  0.0274396165895219   9   6   9   6
 -0.0225085065529328   9   7   5   2
  0.0219137357926648   9   7   5   4
 -0.0246037666718167   9   7   9   1
 -0.0076189943529126   9   7   9   3
  0.0310649935330621   9   7   9   7
  0.0317330861375096   9   8   6   5
  0.0338435331159818   9   8   9   8
  0.6115686086739988   9   9   1   1
  0.4726156982376043   9   9   2   2
  0.1569666305029933   9   9   3   1
  0.5349605483512154   9   9   3   3
 -0.1640376237774259   9   9   4   2
  0.6051162193495387   9   9   4   4
  0.7176296247399472   9   9   5   5
  0.6541634524649279   9   9   6   6
  0.0034550092515296   9   9   7   1
  0.0308948194726668   9   9   7   3
  0.6701146507115551   9   9   7   7
  0.6503106481766997   9   9   8   8
  0.7179977144086634   9   9   9   9
  0.0066331017271629  10   1   2   1
  0.0164479372154994  10   1   3   2
 -0.0258041514321419  10   1   4   1
 -0.0302224293217581  10   1   4   3
  0.0228962530827629  10   1   7   2
 -0.0233094513681280  10   1   7   4
  0.0295811006415556  10   1   8   6
  0.0295811006415556  10   1   9   5
  0.0533269881603996  10   1  10   1
  0.0111681518427432  10   2   1   1
 -0.0237491674908638  10   2   2   2
  0.0168290912061221  10   2   3   1
  0.0176832219505408  10   2   3   3
  0.0034966006974040  10   2   4   2
 -0.0070111072195182  10   2   4   4
  0.0115386394400740  10   2   5   5
  0.0115386394400740  10   2   6   6
  0.0478723481948171  10   2   7   1
  0.0238496760306956  10   2   7   3
 -0.0250507928939392  10   2   7   7
 -0.0015371559734696  10   2   8   8
 -0.0015371559734696  10   2   9   9
  0.0407713638417766  10   2  10   2
  0.0267555373643906  10   3   2   1
  0.0217645620544923  10   3   3   2
 -0.0471671368922992  10   3   4   1
 -0.0518317480488839  10   3   4   3
 -0.0041524861424145  10   3   7   2
  0.0024003663653382  10   3   7   4
  0.0522911591637154  10   3   8   6
  0.0522911591637154  10   3   9   5
  0.0412855189795817  10   3  10   1
  0.0468710709427296  10   3  10   3
 -0.0753606425021098  10   4   1   1
 -0.0092717993398300  10   4   2   2
 -0.0574730200750394  10   4   3   1
 -0.0758355346557169  10   4   3   3
  0.0269014185579744  10   4   4   2
 -0.0581713077053782  10   4   4   4
 -0.0834406417176329  10   4   5   5
 -0.0834406417176329  10   4   6   6
 -0.0605976925096266  10   4   7   1
 -0.0418430400250551  10   4   7   3
 -0.0506798384349892  10   4   7   7
 -0.0661781599134575  10   4   8   8
 -0.0661781599134575  10   4   9   9
 -0.0471798093589286  10   4  10   2
  0.0769775448864642  10   4  10   4
  0.0073505138021749  10   5   5   2
 -0.0141310442825639  10   5   5   4
  0.0175295362776809  10   5   9   1
  0.0138812377777638  10   5   9   3
  0.0163699063556565  10   5   9   7
  0.0317378434029728  10   5  10   5
  0.0073505138021749  10   6   6   2
 -0.0141310442825639  10   6   6   4
  0.0175295362776809  10   6   8   1
  0.0138812377777638  10   6   8   3
  0.0163699063556565  10   6   8   7
  0.0317378434029728  10   6  10   6
  0.1192253333321927  10   7   2   1
  0.0114804239044143  10   7   3   2
 -0.1070183851179126  10   7   4   1
 -0.1239427906609512  10   7   4   3
 -0.1010082954851158  10   7   7   2
  0.1057976798399921  10   7   7   4
  0.1627311860818434  10   7   8   6
  0.1627311860818434  10   7   9   5
 -0.0052833883780151  10   7  10   1
  0.0352590388726514  10   7  10   3
  0.1871185177292141  10   7  10   7
  0.0340682432005786  10   8   6   1
  0.0201910133630434  10   8   6   3
  0.0285898412392069  10   8   7   6
  0.0115490983914623  10   8   8   2
 -0.0181706843212453  10   8   8   4
  0.0383794476153419  10   8  10   8
  0.0340682432005786  10   9   5   1
  0.0201910133630434  10   9   5   3
  0.0285898412392069  10   9   7   5
  0.0115490983914623  10   9   9   2
 -0.0181706843212453  10   9   9   4
  0.0383794476153419  10   9  10   9
  0.6291709923839481  10  10   1   1
  0.4850165293479407  10  10   2   2
  0.1845635668373942  10  10   3   1
  0.5625976167222113  10  10   3   3
 -0.1757536314864291  10  10   4   2
  0.6363652378352257  10  10   4   4
  0.6839311100022392  10  10   5   5
  0.6839311100022392  10  10   6   6
  0.0089597007920091  10  10   7   1
  0.0496910182484623  10  10   7   3
  0.7423812209123841  10  10   7   7
  0.6733541085493329  10  10   8   8
  0.6733541085493329  10  10   9   9
 -0.0176663438709900  10  10  10   2
 -0.0663337089476485  10  10  10   4
  0.7505779875277662  10  10  10  10
 -1.1030280605148732   1   1   0   0
 -0.6043371479646910   2   2   0   0
 -0.1448050474065249   3   1   0   0
 -0.0528034915300413   3   3   0   0
  0.1965196608634243   4   2   0   0
  0.1291970820832574   4   4   0   0
  0.8715514765912912   5   5   0   0
  0.8715514765912912   6   6   0   0
 -0.0341642783946289   7   1   0   0
 -0.0667088812763924   7   3   0   0
  1.0428182342324899   7   7   0   0
  1.4930911075698539   8   8   0   0
  1.4930911075698539   9   9   0   0
 -0.0157032019582975  10   2   0   0
  0.1249171335718928  10   4   0   0
  2.4985633780502781  10  10   0   0
  0.5291772109200000   0   0   0   0
