 &FCI NORB=  10,NELEC=   2,MS2=   0,
  ORBSYM=1,1,1,1,1,1,1,1,1,1,
  ISYM=   1,
 &END
  0.4150714108136265   1   1   1   1
  0.1519698268487945   2   1   2   1
  0.3937720059398118   2   2   1   1
  0.3903536726965495   2   2   2   2
 -0.0000000000000039   3   1   1   1
 -0.0675873684284309   3   1   2   1
 -0.0000000000000038   3   1   2   2
  0.0629825776362882   3   1   3   1
 -0.0982684566402222   3   2   1   1
 -0.0000000000000031   3   2   2   1
 -0.0893581805664223   3   2   2   2
  0.0000000000000059   3   2   3   1
  0.0734521547136307   3   2   3   2
  0.3756219739027392   3   3   1   1
  0.0000000000000135   3   3   2   1
  0.3696297900156313   3   3   2   2
 -0.0000000000000114   3   3   3   1
 -0.0963237227625625   3   3   3   2
  0.3717186702125959   3   3   3   3
  0.0784817292335410   4   1   1   1
 -0.0000000000000030   4   1   2   1
  0.0821920225959245   4   1   2   2
 -0.0637107748621019   4   1   3   2
  0.0886505828408422   4   1   3   3
  0.0644694847429228   4   1   4   1
 -0.0000000000000045   4   2   1   1
  0.0768739956714413   4   2   2   1
 -0.0000000000000042   4   2   2   2
 -0.0640542492245139   4   2   3   1
  0.0000000000000035   4   2   3   3
 -0.0000000000000058   4   2   4   1
  0.0691394130198929   4   2   4   2
 -0.1448689419333132   4   3   2   1
  0.0776220734877111   4   3   3   1
  0.0000000000000040   4   3   3   2
 -0.0000000000000147   4   3   3   3
  0.0000000000000034   4   3   4   1
 -0.0864761618028376   4   3   4   2
  0.1573484855614402   4   3   4   3
  0.3918647483225740   4   4   1   1
 -0.0000000000000131   4   4   2   1
  0.3798534103335641   4   4   2   2
  0.0000000000000028   4   4   3   1
 -0.1050788389218850   4   4   3   2
  0.3790544366818859   4   4   3   3
  0.0897531136019470   4   4   4   1
 -0.0000000000000127   4   4   4   2
  0.0000000000000140   4   4   4   3
  0.3962072644939703   4   4   4   4
 -0.0415756019923517   5   1   1   1
 -0.0094150590418912   5   1   2   2
  0.0226087786918311   5   1   3   2
 -0.0216227678997961   5   1   3   3
 -0.0028841922617216   5   1   4   1
  0.0000000000000013   5   1   4   2
 -0.0245425918006459   5   1   4   4
  0.0711582885259288   5   1   5   1
  0.0469294219090375   5   2   2   1
 -0.0018371969439111   5   2   3   1
  0.0000000000000038   5   2   3   3
  0.0168012145383453   5   2   4   2
 -0.0385846200592343   5   2   4   3
 -0.0000000000000029   5   2   4   4
  0.0622041392412674   5   2   5   2
  0.0244573926084759   5   3   2   1
 -0.0141757875557009   5   3   3   1
  0.0000000000000023   5   3   3   3
  0.0086136111984055   5   3   4   2
 -0.0238744827453835   5   3   4   3
 -0.0000000000000025   5   3   4   4
 -0.0000000000000013   5   3   5   1
 -0.0182657273387472   5   3   5   2
  0.0256930707350998   5   3   5   3
  0.0027827051562921   5   4   1   1
  0.0000000000000020   5   4   2   1
  0.0124234144188976   5   4   2   2
 -0.0000000000000012   5   4   3   1
 -0.0011343946205252   5   4   3   2
  0.0026051898685936   5   4   3   3
  0.0052380419068888   5   4   4   1
 -0.0000000000000021   5   4   4   3
  0.0065993896066479   5   4   4   4
  0.0294580231636057   5   4   5   1
  0.0219412404992629   5   4   5   4
  0.4477558613087766   5   5   1   1
  0.4294033039117062   5   5   2   2
 -0.0000000000000044   5   5   3   1
 -0.1147025746421408   5   5   3   2
  0.4021798412916033   5   5   3   3
  0.0990301596200042   5   5   4   1
 -0.0000000000000057   5   5   4   2
  0.4148263290117986   5   5   4   4
 -0.0365563368177778   5   5   5   1
  0.0121045266958502   5   5   5   4
  0.5295530185858742   5   5   5   5
  0.0630371863859450   6   1   6   1
 -0.0000000000000011   6   2   6   1
  0.0577675555213238   6   2   6   2
 -0.0288177765553255   6   3   6   2
  0.0214311830691339   6   3   6   3
  0.0300062575416032   6   4   6   1
 -0.0000000000000019   6   4   6   2
  0.0225259237489509   6   4   6   4
 -0.0003149050133191   6   5   6   1
  0.0027283630213247   6   5   6   4
  0.0242266172831999   6   5   6   5
  0.4419341221216838   6   6   1   1
 -0.0000000000000034   6   6   2   1
  0.4284252441976769   6   6   2   2
 -0.0000000000000031   6   6   3   1
 -0.1146343350619170   6   6   3   2
  0.3987912426823224   6   6   3   3
  0.0986712726781531   6   6   4   1
 -0.0000000000000072   6   6   4   2
  0.0000000000000027   6   6   4   3
  0.4147249349136998   6   6   4   4
 -0.0304804678475711   6   6   5   1
  0.0085331662808686   6   6   5   4
  0.4739487396850731   6   6   5   5
  0.5188078236209798   6   6   6   6
  0.0630371863859450   7   1   7   1
  0.0577675555213238   7   2   7   2
 -0.0000000000000010   7   3   7   1
 -0.0288177765553255   7   3   7   2
  0.0214311830691339   7   3   7   3
  0.0300062575416032   7   4   7   1
 -0.0000000000000017   7   4   7   2
  0.0225259237489510   7   4   7   4
 -0.0003149050133191   7   5   7   1
  0.0027283630213247   7   5   7   4
  0.0242266172831999   7   5   7   5
 -0.0000000000000018   7   6   2   1
  0.0000000000000016   7   6   4   3
  0.0241144285714339   7   6   7   6
  0.4419341221216839   7   7   1   1
 -0.0000000000000023   7   7   2   1
  0.4284252441976770   7   7   2   2
 -0.0000000000000036   7   7   3   1
 -0.1146343350619171   7   7   3   2
  0.3987912426823224   7   7   3   3
  0.0986712726781531   7   7   4   1
 -0.0000000000000066   7   7   4   2
  0.0000000000000017   7   7   4   3
  0.4147249349136999   7   7   4   4
 -0.0304804678475711   7   7   5   1
  0.0085331662808686   7   7   5   4
  0.4739487396850732   7   7   5   5
  0.4705789664781121   7   7   6   6
  0.5188078236209800   7   7   7   7
  0.0552546082498304   8   1   6   2
 -0.0283590012574490   8   1   6   3
 -0.0000000000000013   8   1   6   4
 -0.0056289687852832   8   1   7   2
  0.0028890247875475   8   1   7   3
  0.0540061403339175   8   1   8   1
  0.0629433390910089   8   2   6   1
 -0.0000000000000014   8   2   6   3
  0.0312231743010912   8   2   6   4
  0.0043354321240669   8   2   6   5
 -0.0064122450996813   8   2   7   1
 -0.0031808075214946   8   2   7   4
 -0.0004416647383825   8   2   7   5
  0.0000000000000010   8   2   8   1
  0.0646844869128393   8   2   8   2
 -0.0308550518672517   8   3   6   1
 -0.0000000000000013   8   3   6   2
  0.0000000000000020   8   3   6   3
 -0.0214780706305939   8   3   6   4
  0.0029559378874458   8   3   6   5
  0.0031433056776687   8   3   7   1
  0.0021880417394524   8   3   7   4
 -0.0003011311205834   8   3   7   5
 -0.0000000000000018   8   3   8   1
 -0.0310282679284760   8   3   8   2
  0.0223094509507876   8   3   8   3
 -0.0000000000000014   8   4   6   1
  0.0307491177904808   8   4   6   2
 -0.0213450894237346   8   4   6   3
 -0.0000000000000019   8   4   6   4
 -0.0031325138246391   8   4   7   2
  0.0021744945062686   8   4   7   3
  0.0296747000863504   8   4   8   1
  0.0227306415690867   8   4   8   4
  0.0068108946914409   8   5   6   2
  0.0019104613374171   8   5   6   3
 -0.0006938482568662   8   5   7   2
 -0.0001946249837695   8   5   7   3
  0.0031734675076527   8   5   8   1
  0.0030122235247597   8   5   8   4
  0.0226148978737018   8   5   8   5
  0.1844223432187568   8   6   2   1
 -0.0874641831725528   8   6   3   1
 -0.0000000000000041   8   6   3   2
  0.0000000000000157   8   6   3   3
 -0.0000000000000039   8   6   4   1
  0.0973679688602784   8   6   4   2
 -0.1680705868443650   8   6   4   3
 -0.0000000000000153   8   6   4   4
  0.0495617905524090   8   6   5   2
  0.0293060506692603   8   6   5   3
  0.0000000000000023   8   6   5   4
 -0.0000000000000048   8   6   6   6
 -0.0000000000000023   8   6   7   6
 -0.0000000000000026   8   6   7   7
  0.2637633511272172   8   6   8   6
 -0.0187877110374835   8   7   2   1
  0.0089102641843471   8   7   3   1
 -0.0000000000000016   8   7   3   3
 -0.0099191954257067   8   7   4   2
  0.0171219038020066   8   7   4   3
  0.0000000000000016   8   7   4   4
 -0.0050490227113882   8   7   5   2
 -0.0029855038278676   8   7   5   3
 -0.0244434582328167   8   7   8   6
  0.0263136752238368   8   7   8   7
  0.4417257699581792   8   8   1   1
  0.0000000000000032   8   8   2   1
  0.4289135963192418   8   8   2   2
 -0.0000000000000061   8   8   3   1
 -0.1148184345988323   8   8   3   2
  0.3991753511367785   8   8   3   3
  0.0992818607355191   8   8   4   1
 -0.0000000000000038   8   8   4   2
 -0.0000000000000034   8   8   4   3
  0.4149631721163493   8   8   4   4
 -0.0293708770339459   8   8   5   1
  0.0000000000000013   8   8   5   2
  0.0087875373736987   8   8   5   4
  0.4736609898924158   8   8   5   5
  0.5189664003599831   8   8   6   6
 -0.0048964941747944   8   8   7   6
  0.4714006695295244   8   8   7   7
  0.0000000000000045   8   8   8   6
  0.5201706841334829   8   8   8   8
  0.0056289687852832   9   1   6   2
 -0.0028890247875475   9   1   6   3
  0.0552546082498304   9   1   7   2
 -0.0283590012574490   9   1   7   3
 -0.0000000000000013   9   1   7   4
  0.0540061403339175   9   1   9   1
  0.0064122450996813   9   2   6   1
  0.0031808075214946   9   2   6   4
  0.0004416647383825   9   2   6   5
  0.0629433390910089   9   2   7   1
 -0.0000000000000014   9   2   7   3
  0.0312231743010912   9   2   7   4
  0.0043354321240669   9   2   7   5
  0.0646844869128393   9   2   9   2
 -0.0031433056776687   9   3   6   1
 -0.0021880417394524   9   3   6   4
  0.0003011311205834   9   3   6   5
 -0.0308550518672517   9   3   7   1
 -0.0000000000000013   9   3   7   2
  0.0000000000000020   9   3   7   3
 -0.0214780706305939   9   3   7   4
  0.0029559378874458   9   3   7   5
 -0.0000000000000018   9   3   9   1
 -0.0310282679284760   9   3   9   2
  0.0223094509507876   9   3   9   3
  0.0031325138246391   9   4   6   2
 -0.0021744945062686   9   4   6   3
 -0.0000000000000014   9   4   7   1
  0.0307491177904808   9   4   7   2
 -0.0213450894237345   9   4   7   3
 -0.0000000000000019   9   4   7   4
  0.0296747000863504   9   4   9   1
  0.0227306415690867   9   4   9   4
  0.0006938482568662   9   5   6   2
  0.0001946249837695   9   5   6   3
  0.0068108946914409   9   5   7   2
  0.0019104613374171   9   5   7   3
  0.0031734675076527   9   5   9   1
  0.0030122235247597   9   5   9   4
  0.0226148978737018   9   5   9   5
  0.0187877110374835   9   6   2   1
 -0.0089102641843471   9   6   3   1
  0.0000000000000016   9   6   3   3
  0.0099191954257067   9   6   4   2
 -0.0171219038020067   9   6   4   3
 -0.0000000000000015   9   6   4   4
  0.0050490227113882   9   6   5   2
  0.0029855038278676   9   6   5   3
  0.0244434582328168   9   6   8   6
  0.0213334041566784   9   6   8   7
  0.0263136752238368   9   6   9   6
  0.1844223432187569   9   7   2   1
 -0.0874641831725527   9   7   3   1
 -0.0000000000000041   9   7   3   2
  0.0000000000000158   9   7   3   3
 -0.0000000000000039   9   7   4   1
  0.0973679688602784   9   7   4   2
 -0.1680705868443649   9   7   4   3
 -0.0000000000000152   9   7   4   4
  0.0495617905524090   9   7   5   2
  0.0293060506692603   9   7   5   3
  0.0000000000000023   9   7   5   4
 -0.0000000000000040   9   7   6   6
 -0.0000000000000024   9   7   7   6
 -0.0000000000000032   9   7   7   7
  0.2161162717467021   9   7   8   6
 -0.0244434582328168   9   7   8   7
  0.0000000000000036   9   7   8   8
  0.0244434582328168   9   7   9   6
  0.2637633511272173   9   7   9   7
  0.0000000000000019   9   8   2   1
  0.0000000000000010   9   8   4   2
 -0.0000000000000017   9   8   4   3
  0.0048964941747945   9   8   6   6
  0.0237828654152294   9   8   7   6
 -0.0048964941747944   9   8   7   7
  0.0000000000000025   9   8   8   6
  0.0000000000000025   9   8   9   7
  0.0244556850026826   9   8   9   8
  0.4417257699581791   9   9   1   1
  0.0000000000000028   9   9   2   1
  0.4289135963192417   9   9   2   2
 -0.0000000000000061   9   9   3   1
 -0.1148184345988324   9   9   3   2
  0.3991753511367783   9   9   3   3
  0.0992818607355191   9   9   4   1
 -0.0000000000000038   9   9   4   2
 -0.0000000000000031   9   9   4   3
  0.4149631721163492   9   9   4   4
 -0.0293708770339459   9   9   5   1
  0.0000000000000012   9   9   5   2
  0.0087875373736987   9   9   5   4
  0.4736609898924158   9   9   5   5
  0.4714006695295244   9   9   6   6
  0.0048964941747944   9   9   7   6
  0.5189664003599833   9   9   7   7
  0.0000000000000034   9   9   8   6
  0.4712593141281177   9   9   8   8
  0.0000000000000040   9   9   9   7
  0.5201706841334830   9   9   9   9
 -0.0029796291782985  10   1   2   1
 -0.0101364642482466  10   1   3   1
 -0.0027331845210293  10   1   4   2
  0.0016327983648166  10   1   4   3
 -0.0472364642694614  10   1   5   2
  0.0276636542911466  10   1   5   3
  0.0000000000000012  10   1   5   4
  0.0019280169932958  10   1   8   6
 -0.0001964134362095  10   1   8   7
  0.0001964134362095  10   1   9   6
  0.0019280169932958  10   1   9   7
  0.0480694631616409  10   1  10   1
  0.0093472197532448  10   2   1   1
 -0.0161199627378771  10   2   2   2
 -0.0037474789761976  10   2   3   2
 -0.0033212778432576  10   2   3   3
 -0.0112933952061457  10   2   4   1
 -0.0030862159456718  10   2   4   4
 -0.0591400056408433  10   2   5   1
  0.0000000000000013  10   2   5   3
 -0.0305471837701897  10   2   5   4
 -0.0087470753596663  10   2   5   5
 -0.0015032069392323  10   2   6   6
 -0.0015032069392323  10   2   7   7
 -0.0023359733324249  10   2   8   8
 -0.0023359733324249  10   2   9   9
  0.0563091153730656  10   2  10   2
 -0.0325075643087906  10   3   1   1
 -0.0160738122689526  10   3   2   2
  0.0148568012573722  10   3   3   2
 -0.0204951071167579  10   3   3   3
 -0.0059736817735573  10   3   4   1
 -0.0189860692905078  10   3   4   4
  0.0418728998121539  10   3   5   1
  0.0000000000000014  10   3   5   2
 -0.0000000000000020  10   3   5   3
  0.0219295183180686  10   3   5   4
 -0.0366517346243149  10   3   5   5
 -0.0292787252071860  10   3   6   6
 -0.0292787252071860  10   3   7   7
 -0.0287826451872041  10   3   8   8
 -0.0287826451872041  10   3   9   9
 -0.0000000000000015  10   3  10   1
 -0.0346613705446955  10   3  10   2
  0.0312645560713485  10   3  10   3
 -0.0000000000000016  10   4   1   1
 -0.0312694671556125  10   4   2   1
  0.0052741719986362  10   4   3   1
  0.0000000000000012  10   4   3   2
 -0.0000000000000035  10   4   3   3
 -0.0144068070174963  10   4   4   2
  0.0282582500501951  10   4   4   3
  0.0000000000000015  10   4   4   4
  0.0000000000000019  10   4   5   1
 -0.0388851354893278  10   4   5   2
  0.0163061713860696  10   4   5   3
  0.0000000000000016  10   4   5   4
 -0.0000000000000019  10   4   5   5
 -0.0000000000000011  10   4   7   7
 -0.0338280339429087  10   4   8   6
  0.0034461731457976  10   4   8   7
 -0.0000000000000020  10   4   8   8
 -0.0034461731457976  10   4   9   6
 -0.0338280339429086  10   4   9   7
 -0.0000000000000020  10   4   9   9
  0.0299997906097690  10   4  10   1
 -0.0000000000000015  10   4  10   2
  0.0297611230458877  10   4  10   4
 -0.1720184641029076  10   5   2   1
  0.0853765165404236  10   5   3   1
  0.0000000000000039  10   5   3   2
 -0.0000000000000148  10   5   3   3
  0.0000000000000038  10   5   4   1
 -0.0949848891260776  10   5   4   2
  0.1583254681865902  10   5   4   3
  0.0000000000000143  10   5   4   4
 -0.0558939891459070  10   5   5   2
 -0.0307251121362497  10   5   5   3
 -0.0000000000000024  10   5   5   4
  0.0000000000000011  10   5   5   5
  0.0000000000000038  10   5   6   6
  0.0000000000000020  10   5   7   6
  0.0000000000000026  10   5   7   7
 -0.2037685986209395  10   5   8   6
  0.0207585777438154  10   5   8   7
 -0.0000000000000034  10   5   8   8
 -0.0207585777438154  10   5   9   6
 -0.2037685986209395  10   5   9   7
 -0.0000000000000021  10   5   9   8
 -0.0000000000000030  10   5   9   9
  0.0028714859225319  10   5  10   1
  0.0360731900101319  10   5  10   4
  0.2351293608556462  10   5  10   5
 -0.0009057135243133  10   6   6   2
 -0.0035084911423743  10   6   6   3
  0.0026328553331279  10   6   8   1
 -0.0013764916945590  10   6   8   4
 -0.0223918444052666  10   6   8   5
  0.0002682176375106  10   6   9   1
 -0.0001402277389578  10   6   9   4
 -0.0022811308811071  10   6   9   5
  0.0234327355257246  10   6  10   6
 -0.0009057135243133  10   7   7   2
 -0.0035084911423743  10   7   7   3
 -0.0002682176375106  10   7   8   1
  0.0001402277389578  10   7   8   4
  0.0022811308811071  10   7   8   5
  0.0026328553331279  10   7   9   1
 -0.0013764916945590  10   7   9   4
 -0.0223918444052666  10   7   9   5
  0.0234327355257246  10   7  10   7
  0.0065273165467642  10   8   6   1
 -0.0012043527599076  10   8   6   4
 -0.0240881634324862  10   8   6   5
 -0.0006649592180126  10   8   7   1
  0.0001226913791758  10   8   7   4
  0.0024539404829946  10   8   7   5
  0.0019893871370224  10   8   8   2
 -0.0045565545503839  10   8   8   3
  0.0252986550440350  10   8  10   8
  0.0006649592180126  10   9   6   1
 -0.0001226913791758  10   9   6   4
 -0.0024539404829946  10   9   6   5
  0.0065273165467642  10   9   7   1
 -0.0012043527599076  10   9   7   4
 -0.0240881634324862  10   9   7   5
  0.0019893871370224  10   9   9   2
 -0.0045565545503839  10   9   9   3
  0.0252986550440350  10   9  10   9
  0.4504955896024630  10  10   1   1
  0.4317574845537399  10  10   2   2
 -0.0000000000000051  10  10   3   1
 -0.1195027758349289  10  10   3   2
  0.4058594380593361  10  10   3   3
  0.1025437974118290  10  10   4   1
 -0.0000000000000054  10  10   4   2
  0.4200126678015667  10  10   4   4
 -0.0375568429220493  10  10   5   1
  0.0122719212964466  10  10   5   4
  0.5297364495499685  10  10   5   5
  0.4787176136458516  10  10   6   6
  0.4787176136458517  10  10   7   7
  0.4785270823751351  10  10   8   8
  0.4785270823751350  10  10   9   9
 -0.0072224320944216  10  10  10   2
 -0.0361655774954761  10  10  10   3
 -0.0000000000000019  10  10  10   4
  0.5323590927456062  10  10  10  10
 -0.8007843051942550   1   1   0   0
 -0.6714242371072003   2   2   0   0
  0.0000000000000039   3   1   0   0
  0.1289495448520794   3   2   0   0
 -0.0350573732227418   3   3   0   0
 -0.0784817292330883   4   1   0   0
  0.0000000000000059   4   2   0   0
 -0.0490546291765745   4   4   0   0
  0.0415756019925068   5   1   0   0
 -0.0084496025743905   5   4   0   0
  0.5177785572975008   5   5   0   0
  0.6324851320192383   6   6   0   0
  0.6324851320192384   7   7   0   0
  0.6721357561434430   8   8   0   0
  0.6721357561434429   9   9   0   0
 -0.0216740686847535  10   2   0   0
  0.0548786643693736  10   3   0   0
  0.0000000000000023  10   4   0   0
  0.8553118844722163  10  10   0   0
  0.2645886054600000   0   0   0   0
