 &FCI NORB=  14,NELEC=  10,MS2=   0,
  ORBSYM=1,1,1,1,1,1,1,1,1,1,1,1,1,1,
  ISYM=   1,
  IGENERAL=1,
  ITGENERAL=1,
 &END
      4.7450438762992784  0.0000000000000009   1   1   1   1
     -0.4064600851186948  0.0872339388523775   1   1   1   3
      0.0166917231303092 -0.0035823560742966   1   1   1   4
     -0.0001774817850202  0.0000737274541370   1   1   1   6
      0.1728891887130654  0.0598484715203259   1   1   1   7
     -0.0007750535735505  0.0001938265574454   1   1   1  10
     -0.2289104904015435 -0.0611614285940571   1   1   1  11
      0.0000155899417454  0.0000041653976248   1   1   1  12
      0.0000865614366660  0.0002867466089851   1   1   1  13
      4.7450438762993192 -0.0000000000000000   1   1   2   2
     -0.0170718158404163  0.0000000000000909   1   1   2   3
     -0.4157157212349660 -0.0000000000000021   1   1   2   4
     -0.0001921861725385 -0.0000000000000221   1   1   2   5
      0.1829549428592789  0.0000000000000016   1   1   2   8
     -0.0007989222620663  0.0000000000000201   1   1   2   9
     -0.0000161368163256  0.0000000000001203   1   1   2  11
     -0.2369403573991841 -0.0000000000000028   1   1   2  12
     -0.0002995271314072  0.0000000000000367   1   1   2  14
     -0.4064600851186947 -0.0872339388523778   1   1   3   1
     -0.0170718158404163 -0.0000000000000909   1   1   3   2
      1.0050956181146846  0.0000000000000002   1   1   3   3
      0.0000039350708270  0.0000000000054705   1   1   3   5
      0.0000942346923002 -0.0000173725322195   1   1   3   6
     -0.1097905675176641 -0.0665102444629657   1   1   3   7
     -0.0052714488987236 -0.0000000000018064   1   1   3   8
      0.0000269729269069  0.0000000000226418   1   1   3   9
      0.0006564451250449 -0.0000220935633974   1   1   3  10
      0.2737647837990198  0.1399241000948218   1   1   3  11
      0.0126071180002850 -0.0000095295270034   1   1   3  12
     -0.0000316791144443 -0.0003865830303397   1   1   3  13
      0.0000159286658459 -0.0000000000001946   1   1   3  14
      0.0166917231303092  0.0035823560742967   1   1   4   1
     -0.4157157212349659  0.0000000000000014   1   1   4   2
      1.0050956181130986  0.0000000000000000   1   1   4   4
      0.0000958226642694 -0.0000000000002431   1   1   4   5
     -0.0000038698496870  0.0000007134218908   1   1   4   6
      0.0045086684375278  0.0027313151438338   1   1   4   7
     -0.1283650315866032  0.0000000000000722   1   1   4   8
      0.0006568168121056 -0.0000000000008797   1   1   4   9
     -0.0000269576293064  0.0000009072960914   1   1   4  10
     -0.0112214728450108 -0.0057461345495369   1   1   4  11
      0.3074506637434010  0.0000003913403459   1   1   4  12
      0.0000013009369274  0.0000158754499319   1   1   4  13
      0.0003878788577160 -0.0000000000000264   1   1   4  14
     -0.0001921861725385  0.0000000000000221   1   1   5   2
      0.0000039350708270 -0.0000000000054706   1   1   5   3
      0.0000958226642694  0.0000000000002431   1   1   5   4
      0.8000734147208693  0.0000000000000000   1   1   5   5
     -0.0003957682360465  0.0000000000002224   1   1   5   8
     -0.0005127690074010  0.0000000000008078   1   1   5   9
     -0.0007769709848344  0.0000000000000730   1   1   5  12
      0.3624256316903561  0.0000000000141547   1   1   5  14
     -0.0001774817850202 -0.0000737274541370   1   1   6   1
      0.0000942346923002  0.0000173725322195   1   1   6   3
     -0.0000038698496869 -0.0000007134218908   1   1   6   4
      0.8000734147138990 -0.0000000000000000   1   1   6   6
     -0.0002957135380221 -0.0002630323018548   1   1   6   7
     -0.0005071131216585 -0.0000759494408418   1   1   6  10
     -0.0006162675859849 -0.0004731787739727   1   1   6  11
      0.0363780674878314 -0.3605953060032575   1   1   6  13
      0.1728891887130654 -0.0598484715203258   1   1   7   1
     -0.1097905675176640  0.0665102444629656   1   1   7   3
      0.0045086684375278 -0.0027313151438338   1   1   7   4
     -0.0002957135380221  0.0002630323018547   1   1   7   6
      0.9991114217453977  0.0000000000000003   1   1   7   7
      0.0005026935694054 -0.0003281368770736   1   1   7  10
      0.2195286390713416 -0.0158708513166581   1   1   7  11
     -0.0000149509979295  0.0000010808835341   1   1   7  12
     -0.0004354734978119 -0.0006017629338391   1   1   7  13
      0.1829549428592788 -0.0000000000000014   1   1   8   2
     -0.0052714488987236  0.0000000000018064   1   1   8   3
     -0.1283650315866031 -0.0000000000000724   1   1   8   4
     -0.0003957682360466 -0.0000000000002225   1   1   8   5
      0.9991114217468523  0.0000000000000001   1   1   8   8
      0.0006003121134249  0.0000000000000439   1   1   8   9
      0.0000149900175006 -0.0000000000009980   1   1   8  11
      0.2201015840325446  0.0000000000000070   1   1   8  12
      0.0007428026818015  0.0000000000001803   1   1   8  14
     -0.0007989222620663 -0.0000000000000201   1   1   9   2
      0.0000269729269069 -0.0000000000226418   1   1   9   3
      0.0006568168121056  0.0000000000008797   1   1   9   4
     -0.0005127690074011 -0.0000000000008078   1   1   9   5
      0.0006003121134249 -0.0000000000000437   1   1   9   8
      1.1153779310218874  0.0000000000000004   1   1   9   9
     -0.0010203909216705  0.0000000000000744   1   1   9  12
      0.0004528752751761  0.0000000000008787   1   1   9  14
     -0.0007750535735505 -0.0001938265574454   1   1  10   1
      0.0006564451250449  0.0000220935633974   1   1  10   3
     -0.0000269576293063 -0.0000009072960913   1   1  10   4
     -0.0005071131216586  0.0000759494408419   1   1  10   6
      0.0005026935694053  0.0003281368770737   1   1  10   7
      1.1153779310219349  0.0000000000000007   1   1  10  10
     -0.0008924559669338 -0.0004946918077427   1   1  10  11
     -0.0000217839871346 -0.0004523510311059   1   1  10  13
     -0.2289104904015437  0.0611614285940568   1   1  11   1
     -0.0000161368163256 -0.0000000000001203   1   1  11   2
      0.2737647837990196 -0.1399241000948215   1   1  11   3
     -0.0112214728450108  0.0057461345495369   1   1  11   4
     -0.0006162675859849  0.0004731787739725   1   1  11   6
      0.2195286390713417  0.0158708513166582   1   1  11   7
      0.0000149900175005  0.0000000000009980   1   1  11   8
     -0.0008924559669336  0.0004946918077428   1   1  11  10
      0.8025740221237679  0.0000000000000001   1   1  11  11
     -0.0000055247382990 -0.0000089254943826   1   1  11  13
      0.0000155899417454 -0.0000041653976248   1   1  12   1
     -0.2369403573991840  0.0000000000000023   1   1  12   2
      0.0126071180002850  0.0000095295270034   1   1  12   3
      0.3074506637434010 -0.0000003913403462   1   1  12   4
     -0.0007769709848344 -0.0000000000000731   1   1  12   5
     -0.0000149509979296 -0.0000010808835341   1   1  12   7
      0.2201015840325444 -0.0000000000000071   1   1  12   8
     -0.0010203909216706 -0.0000000000000742   1   1  12   9
      0.8025740221238843  0.0000000000000001   1   1  12  12
      0.0000104970091183  0.0000000000001243   1   1  12  14
      0.0000865614366660 -0.0002867466089851   1   1  13   1
     -0.0000316791144442  0.0003865830303397   1   1  13   3
      0.0000013009369274 -0.0000158754499320   1   1  13   4
      0.0363780674878312  0.3605953060032574   1   1  13   6
     -0.0004354734978119  0.0006017629338393   1   1  13   7
     -0.0000217839871345  0.0004523510311060   1   1  13  10
     -0.0000055247382988  0.0000089254943829   1   1  13  11
      0.8687199765221809  0.0000000000000003   1   1  13  13
     -0.0002995271314072 -0.0000000000000367   1   1  14   2
      0.0000159286658459  0.0000000000001945   1   1  14   3
      0.0003878788577160  0.0000000000000264   1   1  14   4
      0.3624256316903560 -0.0000000000141546   1   1  14   5
      0.0007428026818015 -0.0000000000001805   1   1  14   8
      0.0004528752751762 -0.0000000000008789   1   1  14   9
      0.0000104970091182 -0.0000000000001245   1   1  14  12
      0.8687199765153103  0.0000000000000002   1   1  14  14
     -0.4064600851186952  0.0872339388523777   1   3   1   1
      0.0528409032253342 -0.0237764651871541   1   3   1   3
     -0.0021699688561006  0.0009764062654252   1   3   1   4
      0.0000193900130874 -0.0000134119743625   1   3   1   6
     -0.0222188592969609 -0.0027207130001310   1   3   1   7
      0.0000884045904474 -0.0000434116275154   1   3   1  10
      0.0355426060306861  0.0017670140578448   1   3   1  11
     -0.0000024206554448 -0.0000001203353930   1   3   1  12
     -0.0000229360625635 -0.0000415302486634   1   3   1  13
     -0.4064600851187004  0.0872339388523790   1   3   2   2
      0.0023265453788816 -0.0004993201663696   1   3   2   3
      0.0566536975386986 -0.0121589434431427   1   3   2   4
      0.0000230516338143 -0.0000049473118947   1   3   2   5
     -0.0218864328551498  0.0046972379706548   1   3   2   8
      0.0000962955024253 -0.0000206668164452   1   3   2   9
      0.0000023696770420 -0.0000005085676365   1   3   2  11
      0.0347941928143912 -0.0074674847531675   1   3   2  12
      0.0000463865719279 -0.0000099554262004   1   3   2  14
      0.0579437774956945  0.0000000000000000   1   3   3   1
      0.0023265453794076 -0.0004993201667339   1   3   3   2
     -0.0126364644660569  0.0027120216938796   1   3   3   3
     -0.0000003656460037  0.0000000817419800   1   3   3   5
     -0.0000088465732178  0.0000036749423043   1   3   3   6
      0.0086555875884096  0.0029962757713628   1   3   3   7
      0.0003677714099079 -0.0000789305707886   1   3   3   8
     -0.0000015297031572  0.0000003407128969   1   3   3   9
     -0.0000387080737240  0.0000096801730029   1   3   3  10
     -0.0063621173086521 -0.0016998530593242   1   3   3  11
     -0.0002639771410425  0.0000568631864769   1   3   3  12
      0.0000018783420705  0.0000062222651812   1   3   3  13
     -0.0000002474126072  0.0000000554325233   1   3   3  14
     -0.0023795239080112  0.0000000000000019   1   3   4   1
      0.0566536975386548 -0.0121589434431223   1   3   4   2
     -0.0126364644660352  0.0027120216938749   1   3   4   4
     -0.0000093677811387  0.0000020103669112   1   3   4   5
      0.0000003810488768 -0.0000001582909620   1   3   4   6
     -0.0003554513341066 -0.0001230453979110   1   3   4   7
      0.0089555924469859 -0.0019220376943012   1   3   4   8
     -0.0000390118472850  0.0000083721626820   1   3   4   9
      0.0000015193521414 -0.0000003799618545   1   3   4  10
      0.0002608279993412  0.0000699005783824   1   3   4  11
     -0.0064386740801080  0.0013818513480195   1   3   4  12
     -0.0000000810542884 -0.0000002685034404   1   3   4  13
     -0.0000063559866707  0.0000013640178446   1   3   4  14
      0.0000230516337874 -0.0000049473118927   1   3   5   2
     -0.0000004034327108  0.0000000865846080   1   3   5   3
     -0.0000093662312824  0.0000020101684547   1   3   5   4
     -0.0042870110693791  0.0009200727824841   1   3   5   5
      0.0000146962045940 -0.0000031540804685   1   3   5   8
      0.0000124757578403 -0.0000026775310647   1   3   5   9
      0.0000143979307285 -0.0000030900652397   1   3   5  12
     -0.0072996609906603  0.0015666438198891   1   3   5  14
      0.0000231858398986  0.0000042743997576   1   3   6   1
     -0.0000095770155516  0.0000002786838530   1   3   6   3
      0.0000003744055585 -0.0000000140965564   1   3   6   4
     -0.0042870110692379  0.0009200727824538   1   3   6   6
      0.0000130771620115  0.0000074106283295   1   3   6   7
      0.0000127588738399 -0.0000008016513854   1   3   6  10
      0.0000133018149191  0.0000063174621560   1   3   6  11
      0.0008260366265434  0.0074200462536142   1   3   6  13
     -0.0191457254584169  0.0115983267912397   1   3   7   1
      0.0066638427126173 -0.0062841121311363   1   3   7   3
     -0.0002736581748145  0.0002580640391840   1   3   7   4
      0.0000088845977919 -0.0000121239664218   1   3   7   6
     -0.0131710911516603  0.0028267625831326   1   3   7   7
      0.0000023171559424 -0.0000023372848210   1   3   7  10
     -0.0021575336928825  0.0006287823901487   1   3   7  11
      0.0000001468432489 -0.0000000427595715   1   3   7  12
      0.0000077918451159  0.0000070146119445   1   3   7  13
     -0.0218864328551882  0.0046972379706636   1   3   8   2
      0.0003677713673740 -0.0000789306163223   1   3   8   3
      0.0089555924487001 -0.0019220376924243   1   3   8   4
      0.0000146963001786 -0.0000031541009691   1   3   8   5
     -0.0131710911516569  0.0028267625831318   1   3   8   8
      0.0000032179189147 -0.0000006906256057   1   3   8   9
     -0.0000001495067294  0.0000000321531750   1   3   8  11
     -0.0021972570044577  0.0004715724623034   1   3   8  12
     -0.0000102506455383  0.0000021999803118   1   3   8  14
      0.0000962955024424 -0.0000206668164432   1   3   9   2
     -0.0000015312752490  0.0000003286419728   1   3   9   3
     -0.0000390117841215  0.0000083726586888   1   3   9   4
      0.0000124994056197 -0.0000026826062818   1   3   9   5
      0.0000032179406872 -0.0000006906302755   1   3   9   8
     -0.0113757176274303  0.0024414418346231   1   3   9   9
      0.0000093997574747 -0.0000020173648967   1   3   9  12
     -0.0000058816745934  0.0000012623173931   1   3   9  14
      0.0000984325445183  0.0000033128827548   1   3  10   1
     -0.0000392713879712  0.0000070551704660   1   3  10   3
      0.0000015402955364 -0.0000002890661308   1   3  10   4
      0.0000119415632631 -0.0000044958605897   1   3  10   6
      0.0000030721466115  0.0000011806272137   1   3  10   7
     -0.0113757176274310  0.0024414418346233   1   3  10  10
      0.0000091992894065  0.0000027926395084   1   3  10  11
      0.0000015498286858  0.0000058369512790   1   3  10  13
      0.0316874414607070 -0.0161958400769969   1   3  11   1
      0.0000023696821113 -0.0000005085867469   1   3  11   2
     -0.0051043190597421  0.0041607648327645   1   3  11   3
      0.0002091751799502 -0.0001707720616833   1   3  11   4
      0.0000095380971885 -0.0000112193408327   1   3  11   6
     -0.0022255409858766  0.0003119074401758   1   3  11   7
     -0.0000001495442445  0.0000000320598337   1   3  11   8
      0.0000072432002513 -0.0000063214913406   1   3  11  10
     -0.0067790581859429  0.0014549127181551   1   3  11  11
     -0.0000022747744599 -0.0000023663318669   1   3  11  13
     -0.0000021580924168  0.0000011030172468   1   3  12   1
      0.0347941928144983 -0.0074674847531900   1   3  12   2
     -0.0002640627712280  0.0000564640501597   1   3  12   3
     -0.0064386705634807  0.0013818677389578   1   3  12   4
      0.0000143979208153 -0.0000030900631351   1   3  12   5
      0.0000001514360394 -0.0000000212889987   1   3  12   7
     -0.0021972570042454  0.0004715724622648   1   3  12   8
      0.0000093997862348 -0.0000020173692792   1   3  12   9
     -0.0067790581859635  0.0014549127181595   1   3  12  12
      0.0000032093049985 -0.0000006887766949   1   3  12  14
     -0.0000038747862133  0.0000472843583126   1   3  13   1
     -0.0000008403502970 -0.0000064461555860   1   3  13   3
      0.0000000350404749  0.0000002511133436   1   3  13   4
     -0.0022914272481582 -0.0071055460453561   1   3  13   6
      0.0000042272569910 -0.0000095940574471   1   3  13   7
     -0.0000009779387146 -0.0000059355852934   1   3  13  10
     -0.0000011034478916  0.0000030913515859   1   3  13  11
     -0.0091371243178313  0.0019609978278569   1   3  13  13
      0.0000463865720402 -0.0000099554262163   1   3  14   2
     -0.0000002742263799  0.0000000588541089   1   3  14   3
     -0.0000063548872021  0.0000013638776868   1   3  14   4
     -0.0072996609563497  0.0015666438131227   1   3  14   5
     -0.0000102507383796  0.0000022000002436   1   3  14   8
     -0.0000059047441809  0.0000012672685917   1   3  14   9
      0.0000032093159631 -0.0000006887789403   1   3  14  12
     -0.0091371243176927  0.0019609978278271   1   3  14  14
      0.0166917231303093 -0.0035823560742967   1   4   1   1
     -0.0021699688561006  0.0009764062654253   1   4   1   3
      0.0000891121569053 -0.0000400971895586   1   4   1   4
     -0.0000007962718646  0.0000005507772369   1   4   1   6
      0.0009124414948251  0.0001117290227911   1   4   1   7
      0.0000009775910628 -0.0000002539946843   1   4   1   9
     -0.0000036304301466  0.0000017827454487   1   4   1  10
     -0.0014595955690021 -0.0000725643439475   1   4   1  11
      0.0000009418942229  0.0000017054845917   1   4   1  13
      0.0166917231303095 -0.0035823560742967   1   4   2   2
     -0.0000955421551610  0.0000205051340254   1   4   2   3
     -0.0023265453789341  0.0004993201663657   1   4   2   4
     -0.0000009466402816  0.0000002031667153   1   4   2   5
      0.0008987900433508 -0.0001928971590418   1   4   2   8
     -0.0000039544789838  0.0000008487051758   1   4   2   9
     -0.0000009798575101  0.0000002450442303   1   4   2  10
     -0.0014288611705806  0.0003066603401887   1   4   2  12
     -0.0000019049147601  0.0000004088303472   1   4   2  14
     -0.0023795239080112 -0.0000000000000019   1   4   3   1
     -0.0000955421424622  0.0000205051245327   1   4   3   2
      0.0005189300842415 -0.0001113721048998   1   4   3   3
      0.0000004789705429 -0.0000000232191329   1   4   3   5
      0.0000003810489207 -0.0000001582909863   1   4   3   6
     -0.0003554513338679 -0.0001230453979853   1   4   3   7
     -0.0000150952088781  0.0000032410386982   1   4   3   8
      0.0000018249370529 -0.0000000894295529   1   4   3   9
      0.0000015193520987 -0.0000003799618464   1   4   3  10
      0.0002612672432626  0.0000698063083958   1   4   3  11
      0.0000108394001473 -0.0000023351008909   1   4   3  12
     -0.0000000810543009 -0.0000002685034638   1   4   3  13
      0.0000003414041130 -0.0000000164572314   1   4   3  14
      0.0000977177769633 -0.0000000000000000   1   4   4   1
     -0.0023265453794546  0.0004993201667553   1   4   4   2
      0.0005189300842406 -0.0001113721048996   1   4   4   4
      0.0000003656452548 -0.0000000817422250   1   4   4   5
      0.0000004166993272 -0.0000001731004685   1   4   4   6
      0.0000145905317050  0.0000050507554964   1   4   4   7
     -0.0003677714096997  0.0000789305708753   1   4   4   8
      0.0000015297004301 -0.0000003407139833   1   4   4   9
     -0.0000017727305936  0.0000004433271145   1   4   4  10
     -0.0000107108646355 -0.0000028704575528   1   4   4  11
      0.0002644111622947 -0.0000567472225345   1   4   4  12
     -0.0000000920823077 -0.0000003050352627   1   4   4  13
      0.0000002474125829 -0.0000000554325177   1   4   4  14
     -0.0000009466402799  0.0000002031667151   1   4   5   2
     -0.0000004411766914  0.0000000946847549   1   4   5   3
      0.0000004034321796 -0.0000000865840932   1   4   5   4
      0.0001760507475290 -0.0000377837842069   1   4   5   5
     -0.0000006035155414  0.0000001295257268   1   4   5   8
     -0.0000005123304928  0.0000001099557099   1   4   5   9
     -0.0000005912629847  0.0000001268978384   1   4   5  12
      0.0002997684758316 -0.0000643359233593   1   4   5  14
     -0.0000009521515997 -0.0000001755328505   1   4   6   1
      0.0000003744055549 -0.0000000140965556   1   4   6   3
     -0.0000004752426440 -0.0000000640024148   1   4   6   4
      0.0001760507475232 -0.0000377837842057   1   4   6   6
     -0.0000005370278054 -0.0000003043254694   1   4   6   7
     -0.0000005239569576  0.0000000329206814   1   4   6  10
     -0.0000005462570085 -0.0000002594339221   1   4   6  11
     -0.0000339220877273 -0.0003047122268952   1   4   6  13
      0.0007862399290297 -0.0004762978375018   1   4   7   1
     -0.0002736581745729  0.0002580640391471   1   4   7   3
      0.0000112316357163 -0.0000105933952100   1   4   7   4
     -0.0000003648556205  0.0000004978837979   1   4   7   6
      0.0005408851074944 -0.0001160840636492   1   4   7   7
     -0.0000005977886542  0.0000003980506451   1   4   7   9
     -0.0000000951565168  0.0000000959831308   1   4   7  10
      0.0000886014550994 -0.0000258216290026   1   4   7  11
     -0.0000003199805496 -0.0000002880626291   1   4   7  13
     -0.0000002040709206  0.0000001358850976   1   4   7  14
      0.0008987900433524 -0.0001928971590422   1   4   8   2
     -0.0000150962432295  0.0000032399362427   1   4   8   3
     -0.0003677713672216  0.0000789306161485   1   4   8   4
     -0.0000006035194658  0.0000001295265686   1   4   8   5
      0.0005408851074946 -0.0001160840636492   1   4   8   8
     -0.0000001321473231  0.0000000283612879   1   4   8   9
      0.0000006967811742 -0.0000001742520766   1   4   8  10
      0.0000902327357947 -0.0000193656334026   1   4   8  12
      0.0000000706830163  0.0000002341471763   1   4   8  13
      0.0000004209538482 -0.0000000903445712   1   4   8  14
      0.0000010100331302  0.0000000000001588   1   4   9   1
     -0.0000039544789845  0.0000008487051757   1   4   9   2
      0.0000017866398349 -0.0000003834464077   1   4   9   3
      0.0000015312732042 -0.0000003286398754   1   4   9   4
     -0.0000005133016144  0.0000001101641292   1   4   9   5
     -0.0000006787235379 -0.0000002349514383   1   4   9   7
     -0.0000001321482172  0.0000000283614796   1   4   9   8
      0.0004671561513618 -0.0001002604502474   1   4   9   9
      0.0000008002769747  0.0000002138346120   1   4   9  11
     -0.0000003860658049  0.0000000828306844   1   4   9  12
      0.0000002415373304 -0.0000000518384295   1   4   9  14
     -0.0000040422389293 -0.0000001360471142   1   4  10   1
     -0.0000010100063762  0.0000000092327989   1   4  10   2
      0.0000015402954930 -0.0000002890661336   1   4  10   3
     -0.0000018269123928  0.0000000279929918   1   4  10   4
     -0.0000004903932146  0.0000001846273790   1   4  10   6
     -0.0000001261610256 -0.0000000484837345   1   4  10   7
      0.0000007181590782 -0.0000000065649267   1   4  10   8
      0.0004671561513614 -0.0001002604502473   1   4  10  10
     -0.0000003778352752 -0.0000001146822455   1   4  10  11
     -0.0000008282503729  0.0000000075793528   1   4  10  12
     -0.0000000636453917 -0.0000002397007191   1   4  10  13
     -0.0013012790651574  0.0006650996944741   1   4  11   1
      0.0002096144239269 -0.0001708663316517   1   4  11   3
     -0.0000085890411505  0.0000070123935872   1   4  11   4
     -0.0000003916888224  0.0000004607329326   1   4  11   6
      0.0000913942480963 -0.0000128088165494   1   4  11   7
      0.0000007207311421 -0.0000004081699445   1   4  11   9
     -0.0000002975046765  0.0000002596125902   1   4  11  10
      0.0002783893584215 -0.0000597475647903   1   4  11  11
      0.0000000934114083  0.0000000971605221   1   4  11  13
      0.0000002064992516 -0.0000001169467301   1   4  11  14
     -0.0014288611705934  0.0003066603402214   1   4  12   2
      0.0000108437002003 -0.0000023186879448   1   4  12   3
      0.0002644109856590 -0.0000567478965058   1   4  12   4
     -0.0000005912693478  0.0000001268985710   1   4  12   5
      0.0000902327358483 -0.0000193656332460   1   4  12   8
     -0.0000003860615593  0.0000000828732974   1   4  12   9
     -0.0000008036079053  0.0000002009548512   1   4  12  10
      0.0002783893584223 -0.0000597475647905   1   4  12  12
     -0.0000000684031975 -0.0000002265805050   1   4  12  13
     -0.0000001318076691  0.0000000282933379   1   4  12  14
      0.0000001591222879 -0.0000019417833292   1   4  13   1
      0.0000000350404732  0.0000002511133492   1   4  13   3
      0.0000000114811431 -0.0000003416076569   1   4  13   4
      0.0000940999389592  0.0002917969355966   1   4  13   6
     -0.0000001735968816  0.0000003939903478   1   4  13   7
     -0.0000000095541789  0.0000002449865927   1   4  13   8
      0.0000000401601113  0.0000002437512316   1   4  13  10
      0.0000000453149124 -0.0000001269658745   1   4  13  11
      0.0000000092452264 -0.0000002371349920   1   4  13  12
      0.0003752258952465 -0.0000805304973347   1   4  13  13
     -0.0000019049147650  0.0000004088303479   1   4  14   2
     -0.0000003115368113  0.0000000668616274   1   4  14   3
      0.0000002742263750 -0.0000000588541111   1   4  14   4
      0.0002997684744225 -0.0000643359230814   1   4  14   5
      0.0000002311269208  0.0000000800084185   1   4  14   7
      0.0000004209576622 -0.0000000903453898   1   4  14   8
      0.0000002424847079 -0.0000000520417558   1   4  14   9
     -0.0000002286606479 -0.0000000610903499   1   4  14  11
     -0.0000001317784342  0.0000000282896198   1   4  14  12
      0.0003752258952408 -0.0000805304973335   1   4  14  14
     -0.0106262600231760  0.0027608806105473   1   5   1   5
     -0.0000124803405893  0.0000032426018468   1   5   1   8
     -0.0000314887270730  0.0000081812995055   1   5   1   9
      0.0000158498673406 -0.0000041180614127   1   5   1  12
     -0.0147942248794504  0.0038437877975979   1   5   1  14
     -0.0101390785014991  0.0042118600398941   1   5   2   6
     -0.0000120276083168 -0.0000041635569399   1   5   2   7
      0.0000108697955429 -0.0000027183344921   1   5   2  10
      0.0000157952268622  0.0000042202464151   1   5   2  11
      0.0044173774227571  0.0146331678709701   1   5   2  13
     -0.0177157938736861  0.0007584284767730   1   5   3   5
     -0.0006724729014296  0.0002793510096167   1   5   3   6
     -0.0000005840860494 -0.0000002021914041   1   5   3   7
     -0.0000152793462639  0.0000006541220246   1   5   3   8
     -0.0000407945073976  0.0000017464481862   1   5   3   9
      0.0000007001622127 -0.0000001750975929   1   5   3  10
      0.0000006971281076  0.0000001858907982   1   5   3  11
      0.0000175482136221 -0.0000007512689346   1   5   3  12
      0.0001645501508355  0.0005450948380643   1   5   3  13
     -0.0138525517192204  0.0005930397349317   1   5   3  14
      0.0007275183438320 -0.0000311456834197   1   5   4   5
     -0.0163753827793367  0.0068024742438700   1   5   4   6
     -0.0000142230128299 -0.0000049235327649   1   5   4   7
      0.0000006274613946 -0.0000000268627505   1   5   4   8
      0.0000016752705655 -0.0000000717195689   1   5   4   9
      0.0000170496460811 -0.0000042638006288   1   5   4  10
      0.0000169466383711  0.0000045279014334   1   5   4  11
     -0.0000007217938891  0.0000000305422375   1   5   4  12
      0.0040069598137866  0.0132736033193548   1   5   4  13
      0.0005688699864362 -0.0000243537939016   1   5   4  14
      0.0109791018693888  0.0000000000000000   1   5   5   1
      0.0173372912416591 -0.0037209070688512   1   5   5   3
     -0.0007119747198390  0.0001528031024450   1   5   5   4
     -0.0032365302228214 -0.0011203788294032   1   5   5   7
      0.0000133148479093 -0.0000033297971003   1   5   5  10
      0.0030310745379566  0.0008098573752128   1   5   5  11
     -0.0000002064486113 -0.0000000551503145   1   5   5  12
      0.0000018220081876  0.0000060356518301   1   5   5  13
      0.0108723763283081  0.0015268584735771   1   5   6   2
      0.0007211086286127  0.0001012686519713   1   5   6   3
      0.0175597109764717  0.0024659920412199   1   5   6   4
     -0.0033916558574715 -0.0004763060373502   1   5   6   8
      0.0000135657283317  0.0000019050984446   1   5   6   9
      0.0000002116082253  0.0000000297264941   1   5   6  11
      0.0031068827308840  0.0004363140201267   1   5   6  12
     -0.0000062432220292 -0.0000008767647930   1   5   6  14
      0.0000107329766359 -0.0000071467873682   1   5   7   2
      0.0000005227505154 -0.0000003480849177   1   5   7   3
      0.0000127294962844 -0.0000084762136653   1   5   7   4
      0.0028507655582267 -0.0018982446179569   1   5   7   5
      0.0000092478881226 -0.0000061579086216   1   5   7   9
     -0.0000107988220901  0.0000071906319296   1   5   7  12
      0.0080030886700805 -0.0053290316875721   1   5   7  14
      0.0000127278662344  0.0000000000000026   1   5   8   1
      0.0000147159868389 -0.0000031583261321   1   5   8   3
     -0.0000006043294676  0.0000001296995649   1   5   8   4
      0.0031629159300731 -0.0013139023643546   1   5   8   6
     -0.0000126527670241  0.0000031642227722   1   5   8  10
     -0.0000126378104255 -0.0000033766323329   1   5   8  11
     -0.0027786678283590 -0.0092047178447205   1   5   8  13
     -0.0000112045433351 -0.0000000000000327   1   5   9   1
     -0.0000171834199949  0.0000036878833938   1   5   9   3
      0.0000007056556954 -0.0000001514467035   1   5   9   4
     -0.0000126747873921  0.0000052652152267   1   5   9   6
      0.0000123248600607  0.0000042664555616   1   5   9   7
     -0.0000146592652453 -0.0000039167344838   1   5   9  11
      0.0000119872783684  0.0000397095017929   1   5   9  13
      0.0000325328316270 -0.0000002973929752   1   5  10   2
      0.0000016767348341 -0.0000000153275506   1   5  10   3
      0.0000408301672527 -0.0000003732415135   1   5  10   4
     -0.0000136982736822  0.0000001252202677   1   5  10   5
     -0.0000111100386291  0.0000001015603991   1   5  10   8
      0.0000129661111846 -0.0000001185273582   1   5  10  12
     -0.0000414427337541  0.0000003788412090   1   5  10  14
     -0.0000142497224189  0.0000080698282697   1   5  11   2
     -0.0000006288098808  0.0000003556928652   1   5  11   3
     -0.0000152836190320  0.0000086553560651   1   5  11   4
     -0.0027299934476079  0.0015460355764848   1   5  11   5
     -0.0000001973350046  0.0000000819846930   1   5  11   6
      0.0000112892059198 -0.0000063932440226   1   5  11   8
     -0.0000112829784492  0.0000063897171814   1   5  11   9
      0.0000001806455546  0.0000005984056736   1   5  11  13
     -0.0079867791347658  0.0045230308862507   1   5  11  14
     -0.0000163493020835  0.0000000000000053   1   5  12   1
     -0.0000171505693594  0.0000036808179950   1   5  12   3
      0.0000007053478342 -0.0000001517477709   1   5  12   4
      0.0000001859441921 -0.0000001052922377   1   5  12   5