 &FCI NORB=  14,NELEC=  10,MS2=   0,
  ORBSYM=1,1,1,1,1,1,1,1,1,1,1,1,1,1,
  ISYM=   1,
  IGENERAL=1,
  ITGENERAL=1,
 &END
      4.7429732884612790 -0.0000000000000007   1   1   1   1
      0.0187620529768303 -0.0219089423549946   1   1   1   3
     -0.2698525941319496  0.3151139662866255   1   1   1   4
      0.0001675605042891  0.0000198852800622   1   1   1   6
      0.1664622549565843 -0.0758386316811753   1   1   1   8
     -0.0004274011977504  0.0005906768002012   1   1   1  10
      0.1488536377200548  0.1842625091749819   1   1   1  11
      0.0000044089667340  0.0000054577596536   1   1   1  12
     -0.0002175286313834 -0.0001542601564311   1   1   1  14
      4.7468542137117016 -0.0000000000000000   1   1   2   2
     -0.4155360587839833  0.0000000000000151   1   1   2   3
     -0.0288909935204778  0.0000000000000711   1   1   2   4
     -0.0001695971769579 -0.0000000000000073   1   1   2   5
      0.1832207033809037 -0.0000000000000024   1   1   2   7
     -0.0007301699916114 -0.0000000000000184   1   1   2   9
      0.0000070275399394 -0.0000000000001021   1   1   2  11
     -0.2372607664291090 -0.0000000000000136   1   1   2  12
     -0.0002662025536438 -0.0000000000001985   1   1   2  13
      0.0187620529768303  0.0219089423549946   1   1   3   1
     -0.4155360587839835 -0.0000000000000147   1   1   3   2
      1.0051185180036029 -0.0000000000000002   1   1   3   3
      0.0000085947680193 -0.0000000000000155   1   1   3   4
      0.0000806389297275 -0.0000000000001603   1   1   3   5
      0.0000033540298812  0.0000050087412098   1   1   3   6
     -0.1282422656101125  0.0000000000001281   1   1   3   7
      0.0080825714867407  0.0037570945457634   1   1   3   8
      0.0006021446826024 -0.0000000000012096   1   1   3   9
     -0.0000412939225262  0.0000033854691159   1   1   3  10
     -0.0038956840125690  0.0209866618242405   1   1   3  11
      0.3070585210460820  0.0000006216140498   1   1   3  12
      0.0003432099485087  0.0000000000002523   1   1   3  13
     -0.0000021884084767 -0.0000238927790959   1   1   3  14
     -0.2698525941319500 -0.3151139662866253   1   1   4   1
     -0.0288909935204778 -0.0000000000000711   1   1   4   2
      0.0000085947680193  0.0000000000000155   1   1   4   3
      1.0049954979410463 -0.0000000000000003   1   1   4   4
      0.0000056065964680  0.0000000000046603   1   1   4   5
     -0.0000482406532234 -0.0000720401905644   1   1   4   6
     -0.0089163055481915 -0.0000000000018267   1   1   4   7
     -0.1162507580843284 -0.0540378875810487   1   1   4   8
      0.0000418653711534  0.0000000000169221   1   1   4   9
      0.0005939260639495 -0.0000486928395242   1   1   4  10
      0.0558997614603655 -0.3018489044053294   1   1   4  11
      0.0213505348105133 -0.0000089406068512   1   1   4  12
      0.0000238623725012  0.0000000000003358   1   1   4  13
      0.0000314756405106  0.0003436472786122   1   1   4  14
     -0.0001695971769579  0.0000000000000073   1   1   5   2
      0.0000806389297275  0.0000000000001603   1   1   5   3
      0.0000056065964681 -0.0000000000046603   1   1   5   4
      0.8000011483451298 -0.0000000000000000   1   1   5   5
     -0.0003641867753377 -0.0000000000005841   1   1   5   7
     -0.0005167836141198  0.0000000000000940   1   1   5   9
     -0.0006990461489520 -0.0000000000001854   1   1   5  12
      0.3624205300197340  0.0000000001899395   1   1   5  13
      0.0001675605042891 -0.0000198852800622   1   1   6   1
      0.0000033540298813 -0.0000050087412098   1   1   6   3
     -0.0000482406532234  0.0000720401905644   1   1   6   4
      0.7999956558810547  0.0000000000000000   1   1   6   6
      0.0002910537757329 -0.0001766956861427   1   1   6   8
      0.0002008548434546 -0.0003605573774561   1   1   6  10
     -0.0004888091365609 -0.0004770019446249   1   1   6  11
     -0.3182717580542738 -0.1733427816935841   1   1   6  14
      0.1832207033809038  0.0000000000000023   1   1   7   2
     -0.1282422656101126 -0.0000000000001279   1   1   7   3
     -0.0089163055481915  0.0000000000018267   1   1   7   4
     -0.0003641867753377  0.0000000000005841   1   1   7   5
      0.9991483085507786 -0.0000000000000001   1   1   7   7
      0.0005668860902434 -0.0000000000000246   1   1   7   9
     -0.0000065183805866 -0.0000000000062393   1   1   7  11
      0.2200706823346995  0.0000000000001052   1   1   7  12
      0.0006401851398320  0.0000000000000606   1   1   7  13
      0.1664622549565844  0.0758386316811751   1   1   8   1
      0.0080825714867407 -0.0037570945457634   1   1   8   3
     -0.1162507580843283  0.0540378875810488   1   1   8   4
      0.0002910537757329  0.0001766956861427   1   1   8   6
      0.9990772332717704 -0.0000000000000001   1   1   8   8
      0.0004644200931710 -0.0002640175344347   1   1   8  10
     -0.0548725324390590 -0.2131133606212900   1   1   8  11
     -0.0000016253032224 -0.0000063123062957   1   1   8  12
      0.0003357588895196  0.0005777232274590   1   1   8  14
     -0.0007301699916114  0.0000000000000184   1   1   9   2
      0.0006021446826024  0.0000000000012096   1   1   9   3
      0.0000418653711534 -0.0000000000169221   1   1   9   4
     -0.0005167836141199 -0.0000000000000939   1   1   9   5
      0.0005668860902434  0.0000000000000246   1   1   9   7
      1.1153814739229557 -0.0000000000000000   1   1   9   9
     -0.0009154732681108 -0.0000000000000508   1   1   9  12
      0.0003399041029835  0.0000000000006738   1   1   9  13
     -0.0004274011977504 -0.0005906768002012   1   1  10   1
     -0.0000412939225262 -0.0000033854691159   1   1  10   3
      0.0005939260639495  0.0000486928395242   1   1  10   4
      0.0002008548434546  0.0003605573774561   1   1  10   6
      0.0004644200931711  0.0002640175344348   1   1  10   8
      1.1153720723638105 -0.0000000000000002   1   1  10  10
     -0.0002465912207526  0.0009089342765919   1   1  10  11
      0.0000044804346885  0.0004698155200789   1   1  10  14
      0.1488536377200546 -0.1842625091749820   1   1  11   1
      0.0000070275399394  0.0000000000001021   1   1  11   2
     -0.0038956840125690 -0.0209866618242406   1   1  11   3
      0.0558997614603658  0.3018489044053295   1   1  11   4
     -0.0004888091365609  0.0004770019446249   1   1  11   6
     -0.0000065183805866  0.0000000000062393   1   1  11   7
     -0.0548725324390588  0.2131133606212900   1   1  11   8
     -0.0002465912207527 -0.0009089342765918   1   1  11  10
      0.8026347226557433 -0.0000000000000001   1   1  11  11
     -0.0000174526721198  0.0000049140142593   1   1  11  14
      0.0000044089667340 -0.0000054577596536   1   1  12   1
     -0.2372607664291091  0.0000000000000138   1   1  12   2
      0.3070585210460818 -0.0000006216140502   1   1  12   3
      0.0213505348105133  0.0000089406068511   1   1  12   4
     -0.0006990461489521  0.0000000000001855   1   1  12   5
      0.2200706823346995 -0.0000000000001056   1   1  12   7
     -0.0000016253032223  0.0000063123062956   1   1  12   8
     -0.0009154732681108  0.0000000000000510   1   1  12   9
      0.8027068030131634 -0.0000000000000003   1   1  12  12
     -0.0000045183411281 -0.0000000000003876   1   1  12  13
     -0.0002662025536438  0.0000000000001985   1   1  13   2
      0.0003432099485087 -0.0000000000002523   1   1  13   3
      0.0000238623725011 -0.0000000000003358   1   1  13   4
      0.3624205300197341 -0.0000000001899393   1   1  13   5
      0.0006401851398318 -0.0000000000000606   1   1  13   7
      0.0003399041029835 -0.0000000000006742   1   1  13   9
     -0.0000045183411281  0.0000000000003874   1   1  13  12
      0.8687949897694138 -0.0000000000000001   1   1  13  13
     -0.0002175286313834  0.0001542601564311   1   1  14   1
     -0.0000021884084766  0.0000238927790959   1   1  14   3
      0.0000314756405107 -0.0003436472786123   1   1  14   4
     -0.3182717580542737  0.1733427816935840   1   1  14   6
      0.0003357588895196 -0.0005777232274591   1   1  14   8
      0.0000044804346885 -0.0004698155200789   1   1  14  10
     -0.0000174526721199 -0.0000049140142593   1   1  14  11
      0.8687900172807779 -0.0000000000000000   1   1  14  14
     -0.0000000186532281 -0.0000001064400496   1   2   1   3
     -0.0000000344613648 -0.0000001966452827   1   2   1   5
     -0.0000000364829538 -0.0000002081809850   1   2   1   7
      0.0000001052853943  0.0000006007851569   1   2   1  12
      0.0000000972519161  0.0000005549440913   1   2   1  13
     -0.0038809274529223  0.0000000000000000   1   2   2   1
     -0.0000301177763090  0.0000351693189341   1   2   2   3
      0.0004331807439462 -0.0005058365393261   1   2   2   4
      0.0000001127235291  0.0000000133774978   1   2   2   6
     -0.0002698333260225  0.0001229335156662   1   2   2   8
      0.0000008027194284 -0.0000011093739233   1   2   2  10
     -0.0002420078675914 -0.0002995759969689   1   2   2  11
      0.0000006323320002  0.0000004484174382   1   2   2  14
      0.0006659700905037  0.0000000000000001   1   2   3   1
      0.0000054688577206 -0.0000063846199109   1   2   3   3
     -0.0000791316664070  0.0000924042314736   1   2   3   4
      0.0000002125355597 -0.0000002579686993   1   2   3   5
      0.0000108955833025  0.0000012930359880   1   2   3   6
      0.0000508173971884 -0.0000231519263597   1   2   3   8
      0.0000003722504442 -0.0000004518254435   1   2   3   9
      0.0000083414484816 -0.0000115280446572   1   2   3  10
      0.0000438963121344  0.0000543382453694   1   2   3  11
      0.0000000820742681 -0.0000000964314723   1   2   3  12
      0.0000003805995572 -0.0000004619592825   1   2   3  13
     -0.0000086775777623 -0.0000061536931761   1   2   3  14
      0.0000463029312693 -0.0000000000000003   1   2   4   1
      0.0000000687133668 -0.0000000834020403   1   2   4   2
      0.0000008539063214 -0.0000010188323346   1   2   4   3
     -0.0000054688577205  0.0000063846199109   1   2   4   4
     -0.0000030568768409  0.0000037103372733   1   2   4   5
      0.0000007575376534  0.0000000899009574   1   2   4   6
      0.0000004229515873 -0.0000005133648215   1   2   4   7
      0.0000035331833691 -0.0000016096849826   1   2   4   8
     -0.0000053540394614  0.0000064985582154   1   2   4   9
      0.0000005799562103 -0.0000008015108045   1   2   4  10
      0.0000030520153683  0.0000037779355659   1   2   4  11
     -0.0000011616745573  0.0000014102242571   1   2   4  12
     -0.0000054741224629  0.0000066443110559   1   2   4  13
     -0.0000006033263265 -0.0000004278480743   1   2   4  14
     -0.0000001135145350 -0.0000000000000004   1   2   5   1
      0.0000004961986325 -0.0000005794241930   1   2   5   3
     -0.0000071367721122  0.0000083337963350   1   2   5   4
     -0.0000200837631681 -0.0000023834454890   1   2   5   6
     -0.0000492661762493  0.0000224452046580   1   2   5   8
     -0.0000161276160304  0.0000222886801540   1   2   5  10
      0.0000258211498442  0.0000319634101468   1   2   5  11
      0.0000180185111471  0.0000127778041762   1   2   5  14
      0.0000000573955305  0.0000001912137726   1   2   6   2
     -0.0000013820899868 -0.0000046044463223   1   2   6   3
     -0.0000000960925897 -0.0000003201334583   1   2   6   4
     -0.0000038151575577 -0.0000127102346973   1   2   6   5
     -0.0000088397222660 -0.0000294496213050   1   2   6   7
      0.0000000351792844  0.0000001172001353   1   2   6   9
     -0.0000071496029543 -0.0000238189722648   1   2   6  12
     -0.0000052243954469 -0.0000174051245344   1   2   6  13
     -0.0002965175763839 -0.0000000000000000   1   2   7   1
     -0.0000025254306717  0.0000029490117671   1   2   7   3
      0.0000363229982850 -0.0000424153197186   1   2   7   4
      0.0000537609315935  0.0000063800915827   1   2   7   6
     -0.0000152896675348  0.0000069658281682   1   2   7   8
      0.0000461553727760 -0.0000637876262956   1   2   7  10
     -0.0000227766823793 -0.0000281947334968   1   2   7  11
     -0.0000541323151126 -0.0000383878620340   1   2   7  14
      0.0000000531101859 -0.0000002045718372   1   2   8   2
      0.0000001671441814 -0.0000006438123243   1   2   8   3
     -0.0000077264650193  0.0000297610924352   1   2   8   5
     -0.0000000569993613  0.0000002195523129   1   2   8   7
     -0.0000114296449188  0.0000440251416309   1   2   8   9
     -0.0000000617229453  0.0000002377467929   1   2   8  12
     -0.0000097433561338  0.0000375298304177   1   2   8  13
      0.0000013693316209  0.0000000000000002   1   2   9   1
     -0.0000006435087717  0.0000007514421042   1   2   9   3
      0.0000092555182130 -0.0000108079118664   1   2   9   4
      0.0000273198366893  0.0000032421882355   1   2   9   6
      0.0000716493504994 -0.0000326427676046   1   2   9   8
      0.0000235060721387 -0.0000324858506222   1   2   9  10
     -0.0000389336533957 -0.0000481950778974   1   2   9  11
     -0.0000280729185035 -0.0000199078742527   1   2   9  14
     -0.0000058671367647  0.0000060393462933   1   2  10   3
     -0.0000004079245904  0.0000004198978089   1   2  10   4
      0.0000000852654858 -0.0000000877681602   1   2  10   5
     -0.0000316939799931  0.0000326242472753   1   2  10   7
      0.0000217793307142 -0.0000224185877195   1   2  10   9
     -0.0000250378850215  0.0000257727856317   1   2  10  12
     -0.0000005335047724 -0.0000002956357166   1   2  11   2
     -0.0000015981835404 -0.0000008854544618   1   2  11   3
     -0.0000001097646695 -0.0000000631421546   1   2  11   4
     -0.0000217523659499 -0.0000120538308318   1   2  11   5
     -0.0000002148468569 -0.0000001190549876   1   2  11   7
     -0.0000314293899121 -0.0000174162457265   1   2  11   9
     -0.0000002417119063 -0.0000001339419695   1   2  11  12
     -0.0000271213888085 -0.0000150290149486   1   2  11  13
      0.0003851150294849 -0.0000000000000000   1   2  12   1
      0.0000031590079058 -0.0000036889380586   1   2  12   3
     -0.0000454363557342  0.0000530572210577   1   2  12   4
      0.0000408037084900  0.0000048423899908   1   2  12   6
      0.0000329834889724 -0.0000150269661581   1   2  12   8
      0.0000363196195746 -0.0000501944233421   1   2  12  10
      0.0000237973157285  0.0000294581521496   1   2  12  11
     -0.0000439327317081 -0.0000311548405086   1   2  12  14
      0.0000007751915655  0.0000000000000003   1   2  13   1
      0.0000004810946762 -0.0000005617869196   1   2  13   3
     -0.0000069195333325  0.0000080801209111   1   2  13   4
     -0.0000219354147819 -0.0000026031906840   1   2  13   6
     -0.0000603900820191  0.0000275131511168   1   2  13   8
     -0.0000201746769194  0.0000278817973289   1   2  13  10
      0.0000338447334536  0.0000418956205304   1   2  13  11
      0.0000248788344740  0.0000176427936859   1   2  13  14
      0.0000004003424665  0.0000003964174388   1   2  14   2
      0.0000061173140978  0.0000060573388814   1   2  14   3
      0.0000004253187416  0.0000004211488685   1   2  14   4
      0.0000129129043591  0.0000127863039546   1   2  14   5
      0.0000275520708440  0.0000272819455369   1   2  14   7
      0.0000220330815144  0.0000218170653408   1   2  14  12
      0.0000177582527191  0.0000175841476784   1   2  14  13
      0.0187620529768303 -0.0219089423549946   1   3   1   1
     -0.0000000186532281 -0.0000001064400496   1   3   1   2
     -0.0000429409259534 -0.0002758312447608   1   3   1   3
      0.0006176987612348  0.0039677306966573   1   3   1   4
     -0.0000002205435529 -0.0000012584770957   1   3   1   5
      0.0000009670715328 -0.0000008910285262   1   3   1   6
      0.0004301918342122 -0.0014921906241614   1   3   1   8
     -0.0000005073659316 -0.0000028951574386   1   3   1   9
      0.0000015038377828  0.0000062467837927   1   3   1  10
      0.0024703693710058  0.0000708641670068   1   3   1  11
     -0.0000003351370809 -0.0000019123771433   1   3   1  13
     -0.0000026809481564  0.0000006725169402   1   3   1  14
      0.0006659700905037 -0.0000000000000001   1   3   2   1
      0.0187921683649483 -0.0219441088851760   1   3   2   2
     -0.0026118896415424  0.0030499721786746   1   3   2   3
     -0.0002615573338945  0.0003054273728960   1   3   2   4
     -0.0000008824143785  0.0000010304184528   1   3   2   5
     -0.0000017763490340 -0.0000002108086540   1   3   2   6
      0.0010125343243016 -0.0011823629413584   1   3   2   7
      0.0000473589358222 -0.0000215762839907   1   3   2   8
     -0.0000041555113830  0.0000048524998434   1   3   2   9
     -0.0000022815112599  0.0000031530930999   1   3   2  10
      0.0000456819099764  0.0000564338196834   1   3   2  11
     -0.0016107512461319  0.0018809198145439   1   3   2  12
     -0.0000018258947341  0.0000021321452580   1   3   2  13
      0.0000019576272967  0.0000013882488917   1   3   2  14
      0.0001566306862665 -0.0000000000000000   1   3   3   1
     -0.0026153862982302  0.0030540552479247   1   3   3   2
      0.0005837039295244 -0.0006816064486146   1   3   3   3
      0.0000131012434494 -0.0000152986683482   1   3   3   4
      0.0000004371464967 -0.0000005099067444   1   3   3   5
     -0.0000007561253747 -0.0000000897333649   1   3   3   6
     -0.0004135475964976  0.0004829103920140   1   3   3   7
      0.0000310994079884 -0.0000141685966596   1   3   3   8
      0.0000014959464192 -0.0000017438150148   1   3   3   9
     -0.0000013733604205  0.0000018980109067   1   3   3  10
      0.0000130828618961  0.0000162161885059   1   3   3  11
      0.0002977207298623 -0.0003476553352310   1   3   3  12
      0.0000003053221709 -0.0000003561594192   1   3   3  13
      0.0000006117970236  0.0000004338550782   1   3   3  14
     -0.0040209003928670 -0.0000000000000091   1   3   4   1
     -0.0001818616290291  0.0002123655913443   1   3   4   2
      0.0005846021270725 -0.0006826552384567   1   3   4   4
      0.0000002064030184 -0.0000002490868681   1   3   4   5
     -0.0000007775490380 -0.0000000922758083   1   3   4   6
     -0.0000287543249457  0.0000335772534772   1   3   4   7
     -0.0005786446452961  0.0002636250370365   1   3   4   8
      0.0000010585694751 -0.0000012798568077   1   3   4   9
      0.0000012879520576 -0.0000017799748909   1   3   4  10
     -0.0002875885804743 -0.0003559978414760   1   3   4  11
      0.0000207076543900 -0.0000242021223398   1   3   4  12
      0.0000001384098234 -0.0000001669939990   1   3   4  13
      0.0000004704191362  0.0000003335971407   1   3   4  14
      0.0000019165620314  0.0000000000000570   1   3   5   1
     -0.0000010264634101  0.0000011986283042   1   3   5   2
      0.0000002770952764 -0.0000003235714348   1   3   5   3
      0.0000001715635159 -0.0000002003392651   1   3   5   4
      0.0001982214884824 -0.0002314684416471   1   3   5   5
      0.0000018444396186  0.0000002188893226   1   3   5   6
     -0.0000006411546250  0.0000007486931093   1   3   5   7
      0.0000040219869712 -0.0000018323792580   1   3   5   8
     -0.0000007052786030  0.0000008235723597   1   3   5   9
      0.0000016506604293 -0.0000022812449354   1   3   5  10
     -0.0000022333140277 -0.0000027646151898   1   3   5  11
     -0.0000006580414861  0.0000007682532093   1   3   5  12
      0.0003376683343001 -0.0003943041879514   1   3   5  13
     -0.0000020987613474 -0.0000014883340429   1   3   5  14
      0.0000008548829077 -0.0000012766396078   1   3   6   1
      0.0000004047462844  0.0000013484162057   1   3   6   2
     -0.0000000945351538 -0.0000003171459764   1   3   6   3
      0.0000001227189764  0.0000004404987599   1   3   6   4
     -0.0000001430171506 -0.0000004764630313   1   3   6   5
      0.0001981171218146 -0.0002313465699529   1   3   6   6
      0.0000006278598076  0.0000020917210968   1   3   6   7
      0.0000001341798606 -0.0000008181253076   1   3   6   8
     -0.0000001872878710 -0.0000005062060289   1   3   6  10
     -0.0000008711367749  0.0000000780815672   1   3   6  11
      0.0000004511184720  0.0000015029938837   1   3   6  12
     -0.0000001293815775 -0.0000004310365521   1   3   6  13
     -0.0004849363604763  0.0001846947474554   1   3   6  14
      0.0000520480787905 -0.0000000000000212   1   3   7   1
      0.0010132353000935 -0.0011831814892145   1   3   7   2
     -0.0004128904338205  0.0004821430109267   1   3   7   3
     -0.0000352274077475  0.0000411359698674   1   3   7   4
     -0.0000006768929683  0.0000007904256999   1   3   7   5
     -0.0000043203385090 -0.0000005127172199   1   3   7   6
      0.0006089872901847 -0.0007111304638159   1   3   7   7
      0.0000008636803687 -0.0000003934846211   1   3   7   8
     -0.0000036204074297  0.0000050034737543   1   3   7  10
      0.0000050719649296  0.0000062857070191   1   3   7  11
      0.0001015792199110 -0.0001186163631344   1   3   7  12
      0.0000002897987632 -0.0000003384056484   1   3   7  13
      0.0000049245747189  0.0000034922558626   1   3   7  14
      0.0014092319746743 -0.0006550659993750   1   3   8   1
      0.0000118996650959 -0.0000424906425455   1   3   8   3
     -0.0001712032948717  0.0006113374493803   1   3   8   4
      0.0000005320193518 -0.0000020492525092   1   3   8   5
      0.0000008399416972 -0.0000002755563625   1   3   8   6
      0.0006086988046643 -0.0007107935916939   1   3   8   8
      0.0000006921959813 -0.0000026662269228   1   3   8   9
     -0.0000000472156562  0.0000002438609672   1   3   8  10
     -0.0001404042790924 -0.0000688948342979   1   3   8  11
      0.0000007302714482 -0.0000028128873187   1   3   8  13
      0.0000006552306937  0.0000001203928913   1   3   8  14
     -0.0000023121788319  0.0000000000002086   1   3   9   1
     -0.0000039367351672  0.0000045970291182   1   3   9   2
      0.0000017232887048 -0.0000020123295027   1   3   9   3
      0.0000006431216372 -0.0000007509901613   1   3   9   4
     -0.0000007081976187  0.0000008269809661   1   3   9   5
     -0.0000027975511641 -0.0000003320000595   1   3   9   6
     -0.0000000903424524  0.0000001054952565   1   3   9   7
     -0.0000067242772548  0.0000030635172465   1   3   9   8
      0.0005260190276767 -0.0006142462431609   1   3   9   9
     -0.0000025121607149  0.0000034718551548   1   3   9  10
      0.0000029481563132  0.0000036494358721   1   3   9  11
     -0.0000002704203916  0.0000003159870620   1   3   9  12
      0.0000031868587688  0.0000022599568269   1   3   9  14
     -0.0000060685436671 -0.0000004975276211   1   3  10   1
      0.0000009476050306 -0.0000009754187062   1   3  10   2
     -0.0000011671846501  0.0000011964038738   1   3  10   3
      0.0000018119492489 -0.0000017926509941   1   3  10   4
      0.0000005300939440  0.0000001074137053   1   3  10   6
      0.0000027648485706 -0.0000028460011456   1   3  10   7
     -0.0000003528743751  0.0000001270889839   1   3  10   8
      0.0000005609411863 -0.0000005774056766   1   3  10   9
      0.0005257866908152 -0.0006139749373028   1   3  10  10
      0.0000003532516110  0.0000005189929287   1   3  10  11
      0.0000011823870886 -0.0000012170658368   1   3  10  12
      0.0000005706298498  0.0000004793111741   1   3  10  14
     -0.0004493760961539 -0.0024265362429783   1   3  11   1
      0.0000001135002903 -0.0000000191355979   1   3  11   2
     -0.0000274453571856 -0.0000158843044992   1   3  11   3
      0.0003949625655962  0.0002288028040577   1   3  11   4
      0.0000014101943120  0.0000007814115134   1   3  11   5
      0.0000000537049211  0.0000008235039644   1   3  11   6
      0.0000894696077802  0.0001278443361257   1   3  11   8
      0.0000027054174047  0.0000014991580453   1   3  11   9
     -0.0000007032774712 -0.0000003340884481   1   3  11  10
      0.0003133953068485 -0.0003659597515367   1   3  11  11
      0.0000020895304817  0.0000011578819302   1   3  11  13
     -0.0000726334831096 -0.0000000718727364   1   3  12   1
     -0.0016084180114680  0.0018781919869046   1   3  12   2
      0.0002969399731657 -0.0003467460304317   1   3  12   3
      0.0000278022879288 -0.0000324450245345   1   3  12   4
     -0.0000006258096831  0.0000007308463263   1   3  12   5
     -0.0000035745447143 -0.0000004241857565   1   3  12   6
      0.0001013482154779 -0.0001183469759262   1   3  12   7
     -0.0000073512441465  0.0000033541514447   1   3  12   8
     -0.0000003685403710  0.0000004304922556   1   3  12   9
     -0.0000035687180029  0.0000049319992668   1   3  12  10
     -0.0000026236206797 -0.0000032476930036   1   3  12  11
      0.0003137734020077 -0.0003664016327048   1   3  12  12
     -0.0000001581652077  0.0000001848002228   1   3  12  13
      0.0000041181594523  0.0000029203853937   1   3  12  14
      0.0000026059396178  0.0000000000000037   1   3  13   1
     -0.0000020238656433  0.0000023633211103   1   3  13   2
      0.0000001633568021 -0.0000001907560325   1   3  13   3
      0.0000002782481687 -0.0000003249177023   1   3  13   4
      0.0003372948539624 -0.0003938680659830   1   3  13   5
      0.0000025552309619  0.0000003032425647   1   3  13   6
      0.0000003802168128 -0.0000004439891563   1   3  13   7
      0.0000057599655885 -0.0000026241859507   1   3  13   8
      0.0000022886657922 -0.0000031629807984   1   3  13  10
     -0.0000029932284560 -0.0000037052662689   1   3  13  11
     -0.0000002429941138  0.0000002835373429   1   3  13  12
      0.0004225651696474 -0.0004934404542145   1   3  13  13
     -0.0000028718290365 -0.0000020365538920   1   3  13  14
     -0.0000002798694580  0.0000030555812614   1   3  14   1
     -0.0000015245927390 -0.0000015096453657   1   3  14   2
      0.0000001552768558  0.0000001543501661   1   3  14   3
     -0.0000002131273311 -0.0000002196052365   1   3  14   4
      0.0000003199312058  0.0000003167943151   1   3  14   5
     -0.0001077804437895  0.0005070140263262   1   3  14   6
     -0.0000022734781655 -0.0000022511885910   1   3  14   7
     -0.0000002656018264 -0.0000007601287856   1   3  14   8
     -0.0000005616778428 -0.0000004903624745   1   3  14  10
      0.0000001576925163 -0.0000001050913163   1   3  14  11
     -0.0000014940478604 -0.0000014794076897   1   3  14  12
      0.0000002844436893  0.0000002816549539   1   3  14  13
      0.0004223840118455 -0.0004932289115053   1   3  14  14
     -0.2698525941319496  0.3151139662866252   1   4   1   1
      0.0006176987612348  0.0039677306966573   1   4   1   3
     -0.0088842891394881 -0.0570674113930329   1   4   1   4
     -0.0000139092859270  0.0000128155675725   1   4   1   6
     -0.0061874029765960  0.0214620175822814   1   4   1   8
     -0.0000000352735784 -0.0000002012977388   1   4   1   9
     -0.0000216295374972 -0.0000898468211161   1   4   1  10
     -0.0355310574995902 -0.0010192316762865   1   4   1  11
     -0.0000010533063121 -0.0000000352958916   1   4   1  12
     -0.0000000233010403 -0.0000001329618964   1   4   1  13
      0.0000385597895349 -0.0000096727390082   1   4   1  14
      0.0000463029312693  0.0000000000000003   1   4   2   1
     -0.2702857405268012  0.3156197627156111   1   4   2   2
      0.0376464887358011 -0.0439607943012842   1   4   2   3
      0.0026118896414912 -0.0030499721786441   1   4   2   4
      0.0000126916713375 -0.0000148203981678   1   4   2   5
     -0.0000001235043141 -0.0000000146569044   1   4   2   6
     -0.0145631725055086  0.0170057992760456   1   4   2   7
      0.0000032927272602 -0.0000015001357922   1   4   2   8
      0.0000597682742599 -0.0000697929846475   1   4   2   9
     -0.0000001586267088  0.0000002192252077   1   4   2  10
      0.0000024866082508  0.0000047288471309   1   4   2  11
      0.0231672818171899 -0.0270530436217190   1   4   2  12
      0.0000262616479490 -0.0000306664164589   1   4   2  13
      0.0000001361080370  0.0000000965208729   1   4   2  14
     -0.0040209003928670  0.0000000000000091   1   4   3   1
      0.0376168419565589 -0.0439261749827686   1   4   3   2
     -0.0084084421053942  0.0098187588305232   1   4   3   3
     -0.0000064634405451  0.0000075475684202   1   4   3   5
     -0.0000007775490489 -0.0000000922758016   1   4   3   6
      0.0059480122754688 -0.0069456502568409   1   4   3   7
     -0.0005786446455030  0.0002636250372767   1   4   3   8
     -0.0000224705971516  0.0000262397184127   1   4   3   9
      0.0000012879520603 -0.0000017799748910   1   4   3  10
     -0.0002874611334149 -0.0003561466647693   1   4   3  11
     -0.0042821048000376  0.0050003058272027   1   4   3  12
     -0.0000045085976958  0.0000052648339661   1   4   3  13
      0.0000004704191444  0.0000003335971344   1   4   3  14
      0.0577092481363857 -0.0000000000000001   1   4   4   1
      0.0026153862981942 -0.0030540552478811   1   4   4   2
     -0.0000009228813618  0.0000010777023394   1   4   4   3
     -0.0083951785058883  0.0098032705808985   1   4   4   4
     -0.0000004371472467  0.0000005099070977   1   4   4   5
      0.0000103732183256  0.0000012310440276   1   4   4   6
      0.0004135475967690 -0.0004829103921407   1   4   4   7
      0.0083134517810329 -0.0037875301387919   1   4   4   8
     -0.0000014959488518  0.0000017438159730   1   4   4   9
     -0.0000198082890234  0.0000273754421775   1   4   4  10
      0.0041294522166047  0.0051117331152465   1   4   4  11
     -0.0002975980301412  0.0003478072224165   1   4   4  12
     -0.0000003053221776  0.0000003561594021   1   4   4  13
     -0.0000061214840661 -0.0000043410427726   1   4   4  14
      0.0000001332547107 -0.0000000000007919   1   4   5   1
      0.0000147635131806 -0.0000172397423492   1   4   5   2
     -0.0000041377295311  0.0000048317354839   1   4   5   3
     -0.0000002770954910  0.0000003235722146   1   4   5   4
     -0.0028509983927865  0.0033291857516509   1   4   5   5
      0.0000001282384199  0.0000000152187072   1   4   5   6
      0.0000092216583541 -0.0000107683727921   1   4   5   7
      0.0000002796374343 -0.0000001274005306   1   4   5   8
      0.0000101439462172 -0.0000118453525902   1   4   5   9
      0.0000001147656964 -0.0000001586083977   1   4   5  10