 &FCI NORB=  41,NELEC=  10,MS2=   0,
  ORBSYM=1,1,1,1,1,1,1,1,1,1,1,1,1,1,1,1,1,1,2,2,2,2,2,2,2,2,2,2,2,2,3,3,3,3,3,3,3,4,4,4,4,
  ISYM=   1,
 &END
  4.7402051897338904   1   1   1   1
  0.0321513902703271   2   1   1   1
  0.0117307289467145   2   1   2   1
  1.3155152932363015   2   2   1   1
  0.0094655575091882   2   2   2   1
  1.0867437528443222   2   2   2   2
 -0.0012217837075734   3   1   1   1
 -0.0000480803466237   3   1   2   1
 -0.0116146494946114   3   1   2   2
  0.0106667052258014   3   1   3   1
 -0.0020012825198929   3   2   1   1
 -0.0115373088060160   3   2   2   1
  0.0036384525865568   3   2   2   2
 -0.0120775586731992   3   2   3   1
  0.0625070160705181   3   2   3   2
  1.3212507022079778   3   3   1   1
 -0.0107027206984987   3   3   2   1
  0.9870948446217773   3   3   2   2
  0.0118992221273772   3   3   3   1
 -0.0036067716218364   3   3   3   2
  1.1107865374268588   3   3   3   3
 -0.0680369882253184   4   1   1   1
  0.0089185411918928   4   1   2   1
 -0.0026366195641895   4   1   2   2
 -0.0000834155864000   4   1   3   1
  0.0027164568394492   4   1   3   2
  0.0008045938483646   4   1   3   3
  0.1499437073835961   4   1   4   1
  0.0381165003738071   4   2   1   1
  0.0005226680387157   4   2   2   1
  0.0059344846795261   4   2   2   2
  0.0015903831642109   4   2   3   1
 -0.0054417876883254   4   2   3   2
  0.0048864421623415   4   2   3   3
 -0.0158079116931249   4   2   4   1
  0.0111557867128629   4   2   4   2
  0.0138574891046407   4   3   1   1
  0.0033762249218342   4   3   2   1
  0.0029275678426662   4   3   2   2
  0.0029859407450724   4   3   3   1
 -0.0054316596781366   4   3   3   2
  0.0167111331427827   4   3   3   3
  0.0474592132919772   4   3   4   1
 -0.0086239301697120   4   3   4   2
  0.0385832851689424   4   3   4   3
  1.5834532772125085   4   4   1   1
 -0.0011138020053747   4   4   2   1
  0.8953595258168310   4   4   2   2
  0.0207711544857155   4   4   3   1
 -0.0215657953481922   4   4   3   2
  0.9630701463832884   4   4   3   3
  0.0022961539098906   4   4   4   1
  0.0106825085683747   4   4   4   2
  0.0202065965094835   4   4   4   3
  1.0056911069627281   4   4   4   4
  0.1293147272233111   5   1   1   1
  0.0045255783461939   5   1   2   1
  0.0008869706608990   5   1   2   2
 -0.0005166083639499   5   1   3   1
  0.0027778890392693   5   1   3   2
  0.0031293440840607   5   1   3   3
  0.0574084324244253   5   1   4   1
 -0.0059259846866991   5   1   4   2
  0.0204115291080475   5   1   4   3
  0.0182534836753938   5   1   4   4
  0.0313525763576391   5   1   5   1
 -0.0602650909867978   5   2   1   1
 -0.0055128525267734   5   2   2   1
 -0.0657084561243594   5   2   2   2
  0.0022533175124764   5   2   3   1
  0.0059583494968656   5   2   3   2
 -0.0381927870610621   5   2   3   3
 -0.0086728967900860   5   2   4   1
  0.0008453418283735   5   2   4   2
 -0.0069432638158928   5   2   4   3
 -0.0289153628681523   5   2   4   4
 -0.0029824389744399   5   2   5   1
  0.0208619583160310   5   2   5   2
 -0.0297912705710620   5   3   1   1
  0.0036372291112046   5   3   2   1
 -0.0111892652821804   5   3   2   2
 -0.0036127043866834   5   3   3   1
  0.0028681517280267   5   3   3   2
 -0.0307181681750290   5   3   3   3
  0.0304910147822667   5   3   4   1
 -0.0076225597545593   5   3   4   2
  0.0197486698737986   5   3   4   3
 -0.0195054014995622   5   3   4   4
  0.0135015529104966   5   3   5   1
 -0.0044435498505836   5   3   5   2
  0.0229461307374023   5   3   5   3
  0.4200672727984054   5   4   1   1
 -0.0008189677439612   5   4   2   1
  0.1528413441036328   5   4   2   2
  0.0083736514975581   5   4   3   1
 -0.0088997839456744   5   4   3   2
  0.1746609967221439   5   4   3   3
 -0.0030563991336821   5   4   4   1
  0.0093480056780415   5   4   4   2
  0.0050612218187198   5   4   4   3
  0.1852287806966917   5   4   4   4
  0.0052141102426731   5   4   5   1
 -0.0216057898278512   5   4   5   2
 -0.0096553907191677   5   4   5   3
  0.0919665970540012   5   4   5   4
  0.7642337211284431   5   5   1   1
 -0.0026012915913924   5   5   2   1
  0.6040433346940289   5   5   2   2
  0.0042682092870868   5   5   3   1
  0.0040362092970730   5   5   3   2
  0.6201817859687656   5   5   3   3
 -0.0223703259279612   5   5   4   1
 -0.0048041612834092   5   5   4   2
 -0.0134044604067435   5   5   4   3
  0.6242742290196280   5   5   4   4
 -0.0067772002688551   5   5   5   1
  0.0242047682734731   5   5   5   2
 -0.0164965373986946   5   5   5   3
  0.0037030076123991   5   5   5   4
  0.6692341246329838   5   5   5   5
  0.0225871636312595   6   1   1   1
 -0.0005737319906582   6   1   2   1
  0.0001201781949774   6   1   2   2
  0.0003953403514571   6   1   3   1
 -0.0009722685413320   6   1   3   2
  0.0005702443405217   6   1   3   3
 -0.0151564436577733   6   1   4   1
  0.0017943051676886   6   1   4   2
 -0.0045888539504849   6   1   4   3
  0.0022792206728952   6   1   4   4
 -0.0049235122402566   6   1   5   1
  0.0009491336894633   6   1   5   2
 -0.0032252683239307   6   1   5   3
  0.0012420675311264   6   1   5   4
  0.0028081334721850   6   1   5   5
  0.0016433409863440   6   1   6   1
  0.0126537633019005   6   2   1   1
 -0.0009829420351972   6   2   2   1
  0.0119419668008689   6   2   2   2
 -0.0011015802761176   6   2   3   1
  0.0058541002681419   6   2   3   2
  0.0106135188120369   6   2   3   3
  0.0020053548723536   6   2   4   1
 -0.0018926596735072   6   2   4   2
  0.0005083102533946   6   2   4   3
  0.0055900219072948   6   2   4   4
  0.0009490053698434   6   2   5   1
 -0.0001168735272842   6   2   5   2
  0.0013260268322724   6   2   5   3
  0.0014826238943603   6   2   5   4
  0.0050846006075925   6   2   5   5
 -0.0002745290567552   6   2   6   1
  0.0030876780816045   6   2   6   2
  0.0482226150206029   6   3   1   1
 -0.0011741611524980   6   3   2   1
  0.0332479228659965   6   3   2   2
 -0.0003578143621755   6   3   3   1
  0.0029493929514966   6   3   3   2
  0.0367337924439388   6   3   3   3
 -0.0051605706625917   6   3   4   1
  0.0007759285891574   6   3   4   2
 -0.0038112856617962   6   3   4   3
  0.0250985700292581   6   3   4   4
 -0.0021010888606442   6   3   5   1
 -0.0003785675713421   6   3   5   2
 -0.0039657454864440   6   3   5   3
  0.0079942251410645   6   3   5   4
  0.0150936908852417   6   3   5   5
  0.0004957241790660   6   3   6   1
  0.0015899858613694   6   3   6   2
  0.0047816272830040   6   3   6   3
 -0.1128347686938799   6   4   1   1
 -0.0000743892659170   6   4   2   1
 -0.0454303837054983   6   4   2   2
 -0.0018024107649770   6   4   3   1
  0.0017882099184604   6   4   3   2
 -0.0508481549935150   6   4   3   3
 -0.0039276708056076   6   4   4   1
 -0.0019890449933029   6   4   4   2
 -0.0046355057480306   6   4   4   3
 -0.0498402496062497   6   4   4   4
 -0.0036441973639357   6   4   5   1
  0.0091795581364209   6   4   5   2
 -0.0011939978501132   6   4   5   3
 -0.0279924764755539   6   4   5   4
  0.0093587986536591   6   4   5   5
  0.0001730733430640   6   4   6   1
 -0.0022629737204399   6   4   6   2
 -0.0017913170379833   6   4   6   3
  0.0178396816359872   6   4   6   4
 -0.0366948159520048   6   5   1   1
  0.0000643020916476   6   5   2   1
 -0.0090073809525942   6   5   2   2
 -0.0016622500990315   6   5   3   1
  0.0050889152346602   6   5   3   2
 -0.0161308074408034   6   5   3   3
  0.0026877659862792   6   5   4   1
 -0.0008973251670410   6   5   4   2
  0.0009525482835699   6   5   4   3
 -0.0223140432449848   6   5   4   4
  0.0007361351574442   6   5   5   1
 -0.0006779764177567   6   5   5   2
  0.0026608434211576   6   5   5   3
 -0.0047085575107389   6   5   5   4
 -0.0067163707065658   6   5   5   5
 -0.0004126390001106   6   5   6   1
  0.0046202001984168   6   5   6   2
 -0.0002205254142825   6   5   6   3
 -0.0063110775118444   6   5   6   4
  0.0243001973580820   6   5   6   5
  0.5072234494234071   6   6   1   1
 -0.0021230283701887   6   6   2   1
  0.4863749336502924   6   6   2   2
  0.0000039811064936   6   6   3   1
  0.0107906194624983   6   6   3   2
  0.4968152940224114   6   6   3   3
 -0.0076704931377398   6   6   4   1
 -0.0096914545073449   6   6   4   2
 -0.0085161986794333   6   6   4   3
  0.5020178269174206   6   6   4   4
 -0.0031634274925417   6   6   5   1
  0.0288204959387955   6   6   5   2
 -0.0036701600530615   6   6   5   3
 -0.0338156727194250   6   6   5   4
  0.5936723535712246   6   6   5   5
  0.0008038997102654   6   6   6   1
  0.0053740795854723   6   6   6   2
  0.0070617743409968   6   6   6   3
  0.0285407406798794   6   6   6   4
 -0.0014167003624811   6   6   6   5
  0.6540197471029359   6   6   6   6
 -0.0367448731293379   7   1   1   1
  0.0017523883500233   7   1   2   1
  0.0000534603743670   7   1   2   2
  0.0001224019474714   7   1   3   1
 -0.0009116436633683   7   1   3   2
 -0.0010624842050514   7   1   3   3
  0.0223913671611040   7   1   4   1
 -0.0024855915670041   7   1   4   2
  0.0074739282769700   7   1   4   3
 -0.0024081010853264   7   1   4   4
  0.0069696227256684   7   1   5   1
 -0.0019031086903713   7   1   5   2
  0.0051026249032525   7   1   5   3
 -0.0015157558690851   7   1   5   4
 -0.0045610991592699   7   1   5   5
 -0.0024152843839626   7   1   6   1
  0.0002017146004791   7   1   6   2
 -0.0009234233104802   7   1   6   3
 -0.0004622628919821   7   1   6   4
  0.0005141500536094   7   1   6   5
 -0.0016168589357748   7   1   6   6
  0.0037248758434204   7   1   7   1
  0.1076345957591547   7   2   1   1
  0.0017666215376743   7   2   2   1
  0.0837389532470695   7   2   2   2
 -0.0013788347149523   7   2   3   1
 -0.0009300060147472   7   2   3   2
  0.0680684188894100   7   2   3   3
 -0.0040684346295908   7   2   4   1
  0.0014628218020290   7   2   4   2
 -0.0023923853373817   7   2   4   3
  0.0580184180304028   7   2   4   4
 -0.0016549894523820   7   2   5   1
 -0.0044269150166225   7   2   5   2
 -0.0030969134127075   7   2   5   3
  0.0156766244624708   7   2   5   4
  0.0328592977544824   7   2   5   5
  0.0004092338970116   7   2   6   1
  0.0020489204053093   7   2   6   2
  0.0054842476697037   7   2   6   3
 -0.0026269009257045   7   2   6   4
 -0.0030908744932394   7   2   6   5
  0.0164624854634506   7   2   6   6
 -0.0005210824430299   7   2   7   1
  0.0162063128480248   7   2   7   2
  0.0224716297563997   7   3   1   1
 -0.0007798691783925   7   3   2   1
  0.0133927565985164   7   3   2   2
  0.0000398304042546   7   3   3   1
  0.0050787498719757   7   3   3   2
  0.0214784344699913   7   3   3   3
  0.0123830684191613   7   3   4   1
 -0.0029452988822407   7   3   4   2
  0.0082610087385467   7   3   4   3
  0.0179680763994425   7   3   4   4
  0.0057328419667205   7   3   5   1
 -0.0018526110942177   7   3   5   2
  0.0070316447704225   7   3   5   3
  0.0052492088589345   7   3   5   4
 -0.0001363228108481   7   3   5   5
 -0.0012686833138052   7   3   6   1
  0.0014561499450912   7   3   6   2
  0.0003137322076140   7   3   6   3
 -0.0022947519482038   7   3   6   4
 -0.0005133092212735   7   3   6   5
 -0.0002668093055765   7   3   6   6
  0.0018778118872893   7   3   7   1
  0.0020506999030251   7   3   7   2
  0.0076192447605636   7   3   7   3
  0.1199242259732074   7   4   1   1
  0.0000821654634610   7   4   2   1
  0.0235072877049347   7   4   2   2
  0.0029106950036490   7   4   3   1
 -0.0018376415917060   7   4   3   2
  0.0302176379816160   7   4   3   3
  0.0043628555275792   7   4   4   1
  0.0016421718253550   7   4   4   2
  0.0048660126273049   7   4   4   3
  0.0387340943023830   7   4   4   4
  0.0044793529221879   7   4   5   1
 -0.0050140529148010   7   4   5   2
  0.0018821121626589   7   4   5   3
  0.0235300836999254   7   4   5   4
 -0.0069240805745896   7   4   5   5
 -0.0001098772933784   7   4   6   1
  0.0007407241151453   7   4   6   2
  0.0005517795790981   7   4   6   3
 -0.0091773377155761   7   4   6   4
 -0.0012651506762041   7   4   6   5
 -0.0204948426530489   7   4   6   6
  0.0003429095755091   7   4   7   1
  0.0005444710511892   7   4   7   2
  0.0014808024762941   7   4   7   3
  0.0183863029967231   7   4   7   4
  0.1026810764233908   7   5   1   1
 -0.0010246810869582   7   5   2   1
  0.0614500859398425   7   5   2   2
  0.0017592956389293   7   5   3   1
 -0.0004523334682979   7   5   3   2
  0.0700917867503545   7   5   3   3
 -0.0004230013621767   7   5   4   1
  0.0026209814427632   7   5   4   2
  0.0023596415275229   7   5   4   3
  0.0623000054713811   7   5   4   4
  0.0006885553618556   7   5   5   1
 -0.0076976873319463   7   5   5   2
 -0.0047492005558847   7   5   5   3
  0.0278227352377159   7   5   5   4
  0.0045810350566212   7   5   5   5
  0.0001650556037028   7   5   6   1
 -0.0004029978077311   7   5   6   2
  0.0037080399472109   7   5   6   3
 -0.0082832042780640   7   5   6   4
 -0.0029703938796932   7   5   6   5
 -0.0050659666696198   7   5   6   6
 -0.0002840872218221   7   5   7   1
  0.0077511390390444   7   5   7   2
  0.0026117819677335   7   5   7   3
 -0.0071325325928350   7   5   7   4
  0.0407810919304473   7   5   7   5
  0.0031271459315770   7   6   1   1
 -0.0000983109269960   7   6   2   1
  0.0152079166597348   7   6   2   2
 -0.0010706354526639   7   6   3   1
  0.0061333835206573   7   6   3   2
  0.0087188142587219   7   6   3   3
  0.0032262078803030   7   6   4   1
 -0.0000831743092828   7   6   4   2
  0.0018633543946132   7   6   4   3
 -0.0019192046864887   7   6   4   4
  0.0013209907465516   7   6   5   1
 -0.0061723121951038   7   6   5   2
  0.0035541596259336   7   6   5   3
  0.0045231094964267   7   6   5   4
 -0.0145894177310883   7   6   5   5
 -0.0004137986842866   7   6   6   1
  0.0012770686632765   7   6   6   2
 -0.0000920828697915   7   6   6   3
 -0.0100341384687500   7   6   6   4
 -0.0018243240007817   7   6   6   5
 -0.0179374858074574   7   6   6   6
  0.0005615832744886   7   6   7   1
 -0.0033255728991286   7   6   7   2
 -0.0024812220200337   7   6   7   3
  0.0054733500443159   7   6   7   4
  0.0042364082934174   7   6   7   5
  0.0412402767453646   7   6   7   6
  0.5536646536346476   7   7   1   1
 -0.0011227005563047   7   7   2   1
  0.5240565169430872   7   7   2   2
 -0.0002498535250272   7   7   3   1
  0.0098348126370958   7   7   3   2
  0.5228484468138455   7   7   3   3
 -0.0043808145701454   7   7   4   1
 -0.0082304156717560   7   7   4   2
 -0.0053138092309992   7   7   4   3
  0.5218181202464364   7   7   4   4
 -0.0014939870292405   7   7   5   1
  0.0177642640256936   7   7   5   2
 -0.0026079701544800   7   7   5   3
 -0.0191904618174078   7   7   5   4
  0.5782545630340022   7   7   5   5
  0.0004539405865401   7   7   6   1
  0.0036746823765762   7   7   6   2
  0.0074112715800764   7   7   6   3
  0.0144476152110948   7   7   6   4
  0.0007269144969116   7   7   6   5
  0.5783284496336173   7   7   6   6
 -0.0009679530934563   7   7   7   1
  0.0190897610991524   7   7   7   2
  0.0002776431355471   7   7   7   3
 -0.0231220957449827   7   7   7   4
  0.0054858942849721   7   7   7   5
 -0.0079898985057913   7   7   7   6
  0.5979443992141473   7   7   7   7
  0.0687528317084209   8   1   1   1
 -0.0016370627193649   8   1   2   1
 -0.0009619737761011   8   1   2   2
  0.0004305406162059   8   1   3   1
  0.0012732330152508   8   1   3   2
  0.0036155887054291   8   1   3   3
 -0.0155300550509455   8   1   4   1
  0.0019599127597251   8   1   4   2
 -0.0049773040681983   8   1   4   3
  0.0082892747783472   8   1   4   4
 -0.0023079574621781   8   1   5   1
  0.0021803555690665   8   1   5   2
 -0.0040442158880341   8   1   5   3
  0.0035470466895628   8   1   5   4
  0.0049772803007913   8   1   5   5
  0.0019389071217254   8   1   6   1
 -0.0000999205266434   8   1   6   2
  0.0007530670303094   8   1   6   3
 -0.0002648658930892   8   1   6   4
 -0.0006392313235652   8   1   6   5
  0.0016360314999233   8   1   6   6
 -0.0031111910184987   8   1   7   1
  0.0001591806287854   8   1   7   2
 -0.0011314983882718   8   1   7   3
  0.0006441753412878   8   1   7   4
  0.0006808949640390   8   1   7   5
 -0.0005432561633033   8   1   7   6
  0.0010717769430799   8   1   7   7
  0.0033455023153071   8   1   8   1
 -0.1986539242733184   8   2   1   1
 -0.0051471306941675   8   2   2   1
 -0.1612033333323802   8   2   2   2
  0.0017825812205706   8   2   3   1
  0.0084745674623646   8   2   3   2
 -0.1282716745944789   8   2   3   3
  0.0031585244790598   8   2   4   1
 -0.0029680863632127   8   2   4   2
  0.0006506045060225   8   2   4   3
 -0.1087895710515188   8   2   4   4
  0.0015157185759869   8   2   5   1
  0.0155904078663522   8   2   5   2
  0.0034095363380360   8   2   5   3
 -0.0328841039261079   8   2   5   4
 -0.0480472285483203   8   2   5   5
 -0.0003479288079044   8   2   6   1
 -0.0023156155836307   8   2   6   2
 -0.0078184253477748   8   2   6   3
  0.0087036835117674   8   2   6   4
  0.0034342821952558   8   2   6   5
 -0.0193212756362856   8   2   6   6
  0.0000339668369175   8   2   7   1
 -0.0234745563657670   8   2   7   2
 -0.0013595142454200   8   2   7   3
 -0.0074569834193691   8   2   7   4
 -0.0056046272147593   8   2   7   5
  0.0005078960324014   8   2   7   6
 -0.0264353862587552   8   2   7   7
  0.0006062851789795   8   2   8   1
  0.0450685786803453   8   2   8   2
  0.0543762995078495   8   3   1   1
  0.0012286586983823   8   3   2   1
  0.0399789781625651   8   3   2   2
  0.0010187141955521   8   3   3   1
 -0.0108918192188259   8   3   3   2
  0.0389042454484801   8   3   3   3
 -0.0118351499451369   8   3   4   1
  0.0033487497307537   8   3   4   2
 -0.0070705939735961   8   3   4   3
  0.0314656669091712   8   3   4   4
 -0.0055624885373340   8   3   5   1
 -0.0007043756726415   8   3   5   2
 -0.0094778353843064   8   3   5   3
  0.0068980950848344   8   3   5   4
  0.0259612502990053   8   3   5   5
  0.0012942921173152   8   3   6   1
 -0.0009244258461421   8   3   6   2
  0.0039011891498908   8   3   6   3
  0.0012739081745010   8   3   6   4
 -0.0024832797663898   8   3   6   5
  0.0143906680198530   8   3   6   6
 -0.0017903069415665   8   3   7   1
  0.0063644263860907   8   3   7   2
 -0.0048355194953362   8   3   7   3
 -0.0008033105977428   8   3   7   4
  0.0029213613671597   8   3   7   5
 -0.0016576037616275   8   3   7   6
  0.0144861531702695   8   3   7   7
  0.0011537305748805   8   3   8   1
 -0.0122910092057940   8   3   8   2
  0.0121325905722146   8   3   8   3
 -0.1195796882144741   8   4   1   1
  0.0003869709611811   8   4   2   1
 -0.0471307239590193   8   4   2   2
 -0.0023555635687709   8   4   3   1
  0.0010060152789063   8   4   3   2
 -0.0586724243121869   8   4   3   3
 -0.0036125769014300   8   4   4   1
 -0.0003252158723313   8   4   4   2
 -0.0040228848175859   8   4   4   3
 -0.0621477409736597   8   4   4   4
 -0.0034635913707819   8   4   5   1
  0.0027055519475981   8   4   5   2
 -0.0015235932421686   8   4   5   3
 -0.0210323116740268   8   4   5   4
 -0.0201564867255416   8   4   5   5
  0.0001353625243104   8   4   6   1
 -0.0011367455374733   8   4   6   2
 -0.0015145823524864   8   4   6   3
  0.0085817755539688   8   4   6   4
  0.0005460838180295   8   4   6   5
 -0.0106179716413647   8   4   6   6
 -0.0003656016278129   8   4   7   1
 -0.0049339712051079   8   4   7   2
 -0.0033010427682354   8   4   7   3
 -0.0065934695714983   8   4   7   4
 -0.0094460433765334   8   4   7   5
 -0.0022647006412607   8   4   7   6
 -0.0156661091692171   8   4   7   7
 -0.0004568214013605   8   4   8   1
  0.0073310217599171   8   4   8   2
  0.0013364793430358   8   4   8   3
  0.0171258487718572   8   4   8   4
  0.0038340495693736   8   5   1   1
  0.0007977377279187   8   5   2   1
  0.0196960138952215   8   5   2   2
 -0.0018586194207558   8   5   3   1
  0.0021322117551634   8   5   3   2
  0.0095438867505915   8   5   3   3
 -0.0034681479071451   8   5   4   1
 -0.0018210205986938   8   5   4   2
 -0.0026572411057484   8   5   4   3
  0.0068719808512931   8   5   4   4
 -0.0019245962952111   8   5   5   1
  0.0048199645031886   8   5   5   2
 -0.0011935501923730   8   5   5   3
 -0.0082845678044392   8   5   5   4
  0.0372923272618284   8   5   5   5
  0.0002932080999864   8   5   6   1
  0.0014412363995388   8   5   6   2
  0.0029770927778131   8   5   6   3
  0.0056013385281125   8   5   6   4
 -0.0011670469560561   8   5   6   5
  0.0301888578620370   8   5   6   6
 -0.0005406733805094   8   5   7   1
  0.0081606577853037   8   5   7   2
  0.0001732946810975   8   5   7   3
 -0.0095556189281077   8   5   7   4
  0.0090759282297992   8   5   7   5
 -0.0052169046417180   8   5   7   6
  0.0239724624599882   8   5   7   7
  0.0001631077906176   8   5   8   1
 -0.0054144865312704   8   5   8   2
  0.0042898623809952   8   5   8   3
  0.0007495674883782   8   5   8   4
  0.0178135580615037   8   5   8   5
  0.0117204555993106   8   6   1   1
  0.0000277109560807   8   6   2   1
  0.0024175811314670   8   6   2   2
  0.0004195604244451   8   6   3   1
 -0.0011164913080422   8   6   3   2
  0.0065869754055044   8   6   3   3
  0.0005296175026287   8   6   4   1
 -0.0002268626276629   8   6   4   2
  0.0008128360611310   8   6   4   3
  0.0061879036072115   8   6   4   4
  0.0004813267819808   8   6   5   1
  0.0007333413603716   8   6   5   2
  0.0011448294178705   8   6   5   3
  0.0016727019860293   8   6   5   4
  0.0028873143472438   8   6   5   5
  0.0000041408436827   8   6   6   1
  0.0021303417001201   8   6   6   2
  0.0002648051134049   8   6   6   3
 -0.0034923561766889   8   6   6   4
  0.0019695774296643   8   6   6   5
  0.0040330781877670   8   6   6   6
  0.0000850906189436   8   6   7   1
  0.0008269198235069   8   6   7   2
  0.0002913975028163   8   6   7   3
  0.0018018799807755   8   6   7   4
 -0.0008070802907137   8   6   7   5
  0.0086144575430171   8   6   7   6
  0.0004333946637261   8   6   7   7
  0.0000390594567660   8   6   8   1
 -0.0005599151669609   8   6   8   2
 -0.0010342072258575   8   6   8   3
 -0.0031025735282529   8   6   8   4
  0.0007707475089087   8   6   8   5
  0.0067938466552606   8   6   8   6
 -0.1085108160183323   8   7   1   1
 -0.0018482478311960   8   7   2   1
 -0.0916466704710171   8   7   2   2
  0.0002960310433479   8   7   3   1
  0.0036269633225102   8   7   3   2
 -0.0784222511975427   8   7   3   3
 -0.0054826336646478   8   7   4   1
 -0.0047272763528494   8   7   4   2
 -0.0059759027726734   8   7   4   3
 -0.0596207090161678   8   7   4   4
 -0.0027095269537185   8   7   5   1
  0.0238716939839381   8   7   5   2
  0.0001018083955179   8   7   5   3
 -0.0396701997338885   8   7   5   4
  0.0343379664660492   8   7   5   5
  0.0005621908356046   8   7   6   1
  0.0004668353769275   8   7   6   2
 -0.0016166219047802   8   7   6   3
  0.0184209531387615   8   7   6   4
 -0.0021903366656925   8   7   6   5
  0.0524056512706819   8   7   6   6
 -0.0010857128726331   8   7   7   1
 -0.0022997484226011   8   7   7   2
 -0.0020118544271411   8   7   7   3
 -0.0108755480607146   8   7   7   4
 -0.0165171051149750   8   7   7   5
 -0.0145432327641019   8   7   7   6
  0.0443731986578451   8   7   7   7
  0.0010159828356381   8   7   8   1
  0.0174294224886338   8   7   8   2
 -0.0004129503854095   8   7   8   3
  0.0047098469742215   8   7   8   4
  0.0125627423696697   8   7   8   5
  0.0016590711140794   8   7   8   6
  0.0553644022530289   8   7   8   7
  0.6273666751249255   8   8   1   1
  0.0027694186791815   8   8   2   1
  0.5962422689560659   8   8   2   2
 -0.0004780864123925   8   8   3   1
 -0.0077183349237533   8   8   3   2
  0.5753471828141510   8   8   3   3
  0.0009047024507869   8   8   4   1
  0.0011193905540427   8   8   4   2
  0.0026814319737141   8   8   4   3
  0.5500520743544357   8   8   4   4
  0.0005327383390826   8   8   5   1
 -0.0197606333321093   8   8   5   2
 -0.0029469190323205   8   8   5   3
  0.0396624296753657   8   8   5   4
  0.4627411263890307   8   8   5   5
 -0.0000511608089181   8   8   6   1
  0.0023793290080503   8   8   6   2
  0.0081273089112659   8   8   6   3
 -0.0138989874234209   8   8   6   4
 -0.0013865075380718   8   8   6   5
  0.4334916055317927   8   8   6   6
  0.0004430211359380   8   8   7   1
  0.0236651163763920   8   8   7   2
  0.0046451928650814   8   8   7   3
 -0.0047443548710162   8   8   7   4
  0.0331219793685811   8   8   7   5
  0.0090046592266621   8   8   7   6
  0.4520912726947588   8   8   7   7
 -0.0006195889936240   8   8   8   1
 -0.0458703818679353   8   8   8   2
  0.0121374700973129   8   8   8   3
 -0.0178827078361435   8   8   8   4
  0.0074969264985562   8   8   8   5
  0.0009874491924588   8   8   8   6
 -0.0367668115197321   8   8   8   7
  0.4746998914171610   8   8   8   8
  0.0251075154815661   9   1   1   1
  0.0011687690802260   9   1   2   1
 -0.0017354937791294   9   1   2   2
  0.0016257543649220   9   1   3   1
 -0.0025281367801734   9   1   3   2
  0.0024868540029371   9   1   3   3
  0.0086705657865476   9   1   4   1
 -0.0006403358845645   9   1   4   2
  0.0039587579236429   9   1   4   3
  0.0068153958917674   9   1   4   4
  0.0049792839220613   9   1   5   1
 -0.0003296266697794   9   1   5   2
  0.0016585535088765   9   1   5   3
  0.0022971852176975   9   1   5   4
 -0.0007219648650047   9   1   5   5
 -0.0006412586013571   9   1   6   1
 -0.0001335179304289   9   1   6   2
 -0.0004668711670395   9   1   6   3
 -0.0009669839733546   9   1   6   4
 -0.0002628652447130   9   1   6   5
 -0.0007792198579255   9   1   6   6
  0.0010647553406403   9   1   7   1
 -0.0005025459405849   9   1   7   2
  0.0009067137907869   9   1   7   3
  0.0012364139512585   9   1   7   4
  0.0003713686268573   9   1   7   5
 -0.0000635736892000   9   1   7   6
 -0.0005588143880148   9   1   7   7
 -0.0002260319439269   9   1   8   1
  0.0004008974327419   9   1   8   2
 -0.0006231246388180   9   1   8   3
 -0.0010243939655243   9   1   8   4
 -0.0007107199944393   9   1   8   5
  0.0001763104332199   9   1   8   6
 -0.0004850248478821   9   1   8   7
  0.0000860217229396   9   1   8   8
  0.0011195126438251   9   1   9   1
  0.0351097763802084   9   2   1   1
 -0.0033230839672252   9   2   2   1
  0.0248604041566001   9   2   2   2
 -0.0030033789360381   9   2   3   1
  0.0160344139583297   9   2   3   2
  0.0232585601967356   9   2   3   3
 -0.0024882901151815   9   2   4   1
  0.0002436949933796   9   2   4   2
 -0.0030923396172227   9   2   4   3
  0.0159112977488835   9   2   4   4
 -0.0005483596759566   9   2   5   1
  0.0002214927648140   9   2   5   2
 -0.0021520131902632   9   2   5   3
  0.0051501794496194   9   2   5   4
  0.0081790748017598   9   2   5   5
  0.0000858664998272   9   2   6   1
  0.0015946878221517   9   2   6   2
  0.0020213889354919   9   2   6   3
 -0.0000382463175188   9   2   6   4
 -0.0018474512062753   9   2   6   5
  0.0013408788624372   9   2   6   6
 -0.0008015214178076   9   2   7   1
  0.0045997641997262   9   2   7   2
  0.0038091444921992   9   2   7   3
  0.0002036737705366   9   2   7   4
  0.0014128047790923   9   2   7   5
 -0.0034292896038969   9   2   7   6
  0.0024305168364907   9   2   7   7
  0.0008100306045712   9   2   8   1
 -0.0040778938265838   9   2   8   2
 -0.0028425413228534   9   2   8   3
 -0.0004411787980631   9   2   8   4
  0.0012617712233776   9   2   8   5
 -0.0009802768517351   9   2   8   6
 -0.0016246776685482   9   2   8   7
  0.0050339131886902   9   2   8   8
 -0.0008746950838883   9   2   9   1
  0.0096742412499437   9   2   9   2
  0.2158337434076965   9   3   1   1
 -0.0026014655073678   9   3   2   1
  0.1464000243043658   9   3   2   2
  0.0015531919071092   9   3   3   1
  0.0037677271870383   9   3   3   2
  0.1737419509527198   9   3   3   3
  0.0069982562638734   9   3   4   1
 -0.0007634416291396   9   3   4   2
  0.0085614615445806   9   3   4   3
  0.1276258442127205   9   3   4   4
  0.0036622109558841   9   3   5   1
 -0.0112240120627491   9   3   5   2
 -0.0029685736417258   9   3   5   3
  0.0408947491079162   9   3   5   4
  0.0474389349762831   9   3   5   5
 -0.0006433003088245   9   3   6   1
  0.0035191322982351   9   3   6   2
  0.0114168132785395   9   3   6   3
 -0.0137563788364426   9   3   6   4
 -0.0021620962113504   9   3   6   5
  0.0129031789233520   9   3   6   6
  0.0008430568164084   9   3   7   1
  0.0174557615215489   9   3   7   2
  0.0070440337575748   9   3   7   3
  0.0103455470185105   9   3   7   4
  0.0118774113051700   9   3   7   5
  0.0046971328249769   9   3   7   6
  0.0251589563920706   9   3   7   7
 -0.0000092587846548   9   3   8   1
 -0.0322172658168133   9   3   8   2
  0.0084549499578890   9   3   8   3
 -0.0119317756496958   9   3   8   4
  0.0008889744287484   9   3   8   5
  0.0009968681715298   9   3   8   6
 -0.0195772579663117   9   3   8   7
  0.0440430004419453   9   3   8   8
  0.0008138244139678   9   3   9   1
  0.0061333425404268   9   3   9   2
  0.0537446096671042   9   3   9   3
  0.0763734246524631   9   4   1   1
 -0.0003091260500871   9   4   2   1
  0.0315402118812852   9   4   2   2
  0.0021985515097748   9   4   3   1
 -0.0029986025254123   9   4   3   2
  0.0364824474061431   9   4   3   3
 -0.0066725398539139   9   4   4   1
  0.0018537838391114   9   4   4   2
 -0.0012826553870732   9   4   4   3
  0.0442343463597767   9   4   4   4
 -0.0025811166320818   9   4   5   1
  0.0053937945455076   9   4   5   2
 -0.0092676433182434   9   4   5   3
  0.0023802036791204   9   4   5   4
  0.0470258407529710   9   4   5   5
  0.0009148991851728   9   4   6   1
 -0.0001017593541250   9   4   6   2
  0.0039025835230137   9   4   6   3
  0.0111363635100056   9   4   6   4
 -0.0057707631249790   9   4   6   5
  0.0322042932879467   9   4   6   6
 -0.0015223239444015   9   4   7   1
  0.0077413737151837   9   4   7   2
 -0.0011550149127298   9   4   7   3
 -0.0047573986391551   9   4   7   4
  0.0034101998978782   9   4   7   5