 &FCI NORB=  14,NELEC=  10,MS2=   0,
  ORBSYM=1,1,1,1,1,1,1,1,1,1,1,1,1,1,
  ISYM=   1,
  IGENERAL=1,
  ITGENERAL=1,
 &END
      4.7429704433197424  0.0000000000000013   1   1   1   1
      0.0001386180277331  0.0024094076679141   1   1   1   3
      0.0238864125980477  0.4151848554236799   1   1   1   4
     -0.0001682523384359  0.0000129785987797   1   1   1   5
      0.1579316562095140  0.0922924970275128   1   1   1   8
     -0.0006814365736465  0.0002594389569697   1   1   1   9
     -0.0155216577914313  0.2363666935362298   1   1   1  11
     -0.0000019230217041  0.0000292841361335   1   1   1  12
      0.0000999789531433  0.0002472378897002   1   1   1  14
      4.7468513571690476 -0.0000000000000009   1   1   2   2
     -0.4165389192583318  0.0000000000000122   1   1   2   3
      0.0024172655935702  0.0000000000001256   1   1   2   4
     -0.0001696129587862 -0.0000000000000191   1   1   2   6
      0.1832183247372861 -0.0000000000000013   1   1   2   7
     -0.0007302343019661 -0.0000000000000225   1   1   2  10
      0.0000293949199131  0.0000000000001003   1   1   2  11
     -0.2372608839562888 -0.0000000000000055   1   1   2  12
     -0.0002662164233796 -0.0000000000000782   1   1   2  13
      0.0001386180277331 -0.0024094076679141   1   1   3   1
     -0.4165389192583318 -0.0000000000000116   1   1   3   2
      1.0051261964531051 -0.0000000000000002   1   1   3   3
     -0.0000007208330158  0.0000000000001351   1   1   3   4
      0.0000000098430736  0.0000005042720991   1   1   3   5
      0.0000808357994683  0.0000000000000684   1   1   3   6
     -0.1285432770146244 -0.0000000000000112   1   1   3   7
      0.0004125977141666 -0.0006211510916219   1   1   3   8
      0.0000010453613027  0.0000033053415898   1   1   3   9
      0.0006036178363813  0.0000000000000412   1   1   3  10
      0.0017341187478519  0.0002191689718506   1   1   3  11
      0.3077953569504217  0.0000000271535077   1   1   3  12
      0.0003440516459966  0.0000000000000743   1   1   3  13
      0.0000019012612482 -0.0000006444620587   1   1   3  14
      0.0238864125980475 -0.4151848554236797   1   1   4   1
      0.0024172655935703 -0.0000000000001256   1   1   4   2
     -0.0000007208330158 -0.0000000000001351   1   1   4   3
      1.0050019879549041 -0.0000000000000001   1   1   4   4
      0.0000016961155953  0.0000868952435919   1   1   4   5
     -0.0000004691098700  0.0000000000043282   1   1   4   6
      0.0007459644869448 -0.0000000000017470   1   1   4   7
      0.0710981059333602 -0.1070356542862211   1   1   4   8
      0.0001801347788599  0.0005695705978630   1   1   4   9
     -0.0000035029337556  0.0000000000127098   1   1   4  10
      0.3053916034773896  0.0377668084627730   1   1   4  11
     -0.0017483660681785  0.0000046790363508   1   1   4  12
     -0.0000019966045877 -0.0000000000005600   1   1   4  13
      0.0003276220351673 -0.0001110525982282   1   1   4  14
     -0.0001682523384359 -0.0000129785987797   1   1   5   1
      0.0000000098430736 -0.0000005042720991   1   1   5   3
      0.0000016961155952 -0.0000868952435919   1   1   5   4
      0.8000068941564334  0.0000000000000002   1   1   5   5
     -0.0002799092891505 -0.0001939065572242   1   1   5   8
     -0.0003958888177574  0.0001167572980011   1   1   5   9
     -0.0000970412766770  0.0006760928947622   1   1   5  11
     -0.1096239248125877 -0.3454388254553772   1   1   5  14
     -0.0001696129587862  0.0000000000000191   1   1   6   2
      0.0000808357994682 -0.0000000000000684   1   1   6   3
     -0.0000004691098700 -0.0000000000043282   1   1   6   4
      0.8000123856890693  0.0000000000000001   1   1   6   6
     -0.0003642092072362 -0.0000000000001386   1   1   6   7
     -0.0005168029195557 -0.0000000000010452   1   1   6  10
     -0.0006990845556757 -0.0000000000000916   1   1   6  12
      0.3624215703143430  0.0000000001041468   1   1   6  13
      0.1832183247372862  0.0000000000000012   1   1   7   2
     -0.1285432770146244  0.0000000000000115   1   1   7   3
      0.0007459644869448  0.0000000000017470   1   1   7   4
     -0.0003642092072362  0.0000000000001386   1   1   7   6
      0.9991549527833633  0.0000000000000004   1   1   7   7
      0.0005669067724761 -0.0000000000000319   1   1   7  10
     -0.0000272649478864 -0.0000000000029738   1   1   7  11
      0.2200688219886577  0.0000000000000523   1   1   7  12
      0.0006402425624911  0.0000000000000391   1   1   7  13
      0.1579316562095139 -0.0922924970275129   1   1   8   1
      0.0004125977141666  0.0006211510916219   1   1   8   3
      0.0710981059333605  0.1070356542862208   1   1   8   4
     -0.0002799092891506  0.0001939065572242   1   1   8   5
      0.9990838775404869  0.0000000000000002   1   1   8   8
      0.0003351626770075 -0.0004160290899542   1   1   8   9
     -0.0983432121091865 -0.1968656723066481   1   1   8  11
     -0.0000121840210990 -0.0000243902429643   1   1   8  12
     -0.0005288789078647 -0.0004084859137516   1   1   8  14
     -0.0006814365736465 -0.0002594389569697   1   1   9   1
      0.0000010453613027 -0.0000033053415898   1   1   9   3
      0.0001801347788599 -0.0005695705978630   1   1   9   4
     -0.0003958888177575 -0.0001167572980013   1   1   9   5
      0.0003351626770075  0.0004160290899541   1   1   9   8
      1.1153720316073319  0.0000000000000004   1   1   9   9
     -0.0003920882624900  0.0008563912483812   1   1   9  11
     -0.0000000485771752  0.0000001061007461   1   1   9  12
     -0.0000096320196614 -0.0004697765478174   1   1   9  14
     -0.0007302343019661  0.0000000000000225   1   1  10   2
      0.0006036178363813 -0.0000000000000412   1   1  10   3
     -0.0000035029337556 -0.0000000000127098   1   1  10   4
     -0.0005168029195557  0.0000000000010451   1   1  10   6
      0.0005669067724762  0.0000000000000321   1   1  10   7
      1.1153814305215934  0.0000000000000000   1   1  10  10
      0.0000001134437100  0.0000000000237837   1   1  10  11
     -0.0009155652257801 -0.0000000000000496   1   1  10  12
      0.0003399468620642 -0.0000000000011866   1   1  10  13
     -0.0155216577914316 -0.2363666935362299   1   1  11   1
      0.0000293949199131 -0.0000000000001003   1   1  11   2
      0.0017341187478519 -0.0002191689718506   1   1  11   3
      0.3053916034773895 -0.0377668084627735   1   1  11   4
     -0.0000970412766768 -0.0006760928947622   1   1  11   5
     -0.0000272649478864  0.0000000000029738   1   1  11   7
     -0.0983432121091869  0.1968656723066479   1   1  11   8
     -0.0003920882624901 -0.0008563912483812   1   1  11   9
      0.0000001134437099 -0.0000000000237836   1   1  11  10
      0.8026223012802960  0.0000000000000000   1   1  11  11
      0.0000163293514015 -0.0000078850204608   1   1  11  14
     -0.0000019230217041 -0.0000292841361335   1   1  12   1
     -0.2372608839562890  0.0000000000000057   1   1  12   2
      0.3077953569504217 -0.0000000271535080   1   1  12   3
     -0.0017483660681785 -0.0000046790363508   1   1  12   4
     -0.0006990845556758  0.0000000000000915   1   1  12   6
      0.2200688219886574 -0.0000000000000519   1   1  12   7
     -0.0000121840210991  0.0000243902429643   1   1  12   8
     -0.0000000485771751 -0.0000001061007461   1   1  12   9
     -0.0009155652257799  0.0000000000000499   1   1  12  10
      0.8026943795740247  0.0000000000000002   1   1  12  12
     -0.0000045146737917 -0.0000000000001158   1   1  12  13
     -0.0002662164233796  0.0000000000000782   1   1  13   2
      0.0003440516459966 -0.0000000000000744   1   1  13   3
     -0.0000019966045878  0.0000000000005601   1   1  13   4
      0.3624215703143429 -0.0000000001041463   1   1  13   6
      0.0006402425624910 -0.0000000000000392   1   1  13   7
      0.0003399468620642  0.0000000000011866   1   1  13  10
     -0.0000045146737915  0.0000000000001155   1   1  13  12
      0.8687837013237769  0.0000000000000004   1   1  13  13
      0.0000999789531433 -0.0002472378897002   1   1  14   1
      0.0000019012612481  0.0000006444620587   1   1  14   3
      0.0003276220351673  0.0001110525982281   1   1  14   4
     -0.1096239248125881  0.3454388254553772   1   1  14   5
     -0.0005288789078646  0.0004084859137517   1   1  14   8
     -0.0000096320196613  0.0004697765478174   1   1  14   9
      0.0000163293514015  0.0000078850204606   1   1  14  11
      0.8687787309120842  0.0000000000000003   1   1  14  14
      0.0000000710616074 -0.0000000817516310   1   2   1   3
      0.0000001306817195 -0.0000001503405864   1   2   1   6
      0.0000001386498163 -0.0000001595073491   1   2   1   7
     -0.0000004001486777  0.0000004603443159   1   2   1  12
     -0.0000003700229734  0.0000004256867053   1   2   1  13
     -0.0038809160532522  0.0000000000000000   1   2   2   1
     -0.0000002225133780 -0.0000038676458214   1   2   2   3
     -0.0000383431102467 -0.0006664658671086   1   2   2   4
     -0.0000001136576678  0.0000000087672927   1   2   2   5
     -0.0002560018554615 -0.0001496030058273   1   2   2   8
      0.0000012805165670 -0.0000004875228234   1   2   2   9
      0.0000252349567718 -0.0003842826181195   1   2   2  11
     -0.0000002903419870 -0.0000007179865053   1   2   2  14
      0.0006675679337164  0.0000000000000000   1   2   3   1
      0.0000000438386600  0.0000007112248566   1   2   3   3
      0.0000070210060735  0.0001220368448464   1   2   3   4
     -0.0000109662673752  0.0000008459127103   1   2   3   5
      0.0000483285302298  0.0000282423476055   1   2   3   8
      0.0000133304782093 -0.0000050752270845   1   2   3   9
     -0.0000045882433727  0.0000698706392542   1   2   3  11
      0.0000039977272156  0.0000098859768021   1   2   3  14
     -0.0000038740413496 -0.0000000000000012   1   2   4   1
      0.0000000775351032  0.0000000756398639   1   2   4   2
      0.0000005329395903  0.0000005160334072   1   2   4   3
     -0.0000000438386594 -0.0000007112248560   1   2   4   4
     -0.0000034496560293 -0.0000033653339183   1   2   4   6
      0.0000004772353264  0.0000004655699630   1   2   4   7
     -0.0000002804609320 -0.0000001638964630   1   2   4   8
     -0.0000060417335521 -0.0000058940516565   1   2   4  10
      0.0000000267889928 -0.0000004053160051   1   2   4  11
     -0.0000013109434995 -0.0000012789527360   1   2   4  12
     -0.0000061770897205 -0.0000060260992352   1   2   4  13
      0.0000001418572336 -0.0000001398446627   1   2   5   2
     -0.0000034320143297  0.0000033833233243   1   2   5   3
     -0.0000094511961360  0.0000093171092088   1   2   5   6
     -0.0000218970544269  0.0000215863944211   1   2   5   7
      0.0000000871537639 -0.0000000859172877   1   2   5  10
     -0.0000177098899259  0.0000174586344649   1   2   5  12
     -0.0000129418156328  0.0000127582062426   1   2   5  13
     -0.0000001139953165  0.0000000000000002   1   2   6   1
      0.0000006317408340  0.0000109806872223   1   2   6   4
      0.0000201648868957 -0.0000015554731250   1   2   6   5
     -0.0000467424585042 -0.0000273154750217   1   2   6   8
     -0.0000257107871334  0.0000097887023456   1   2   6   9
     -0.0000026924271862  0.0000410007824181   1   2   6  11
     -0.0000082808662525 -0.0000204777482746   1   2   6  14
     -0.0002965097120703 -0.0000000000000000   1   2   7   1
     -0.0000000186577839 -0.0000003243027470   1   2   7   3
     -0.0000032150761852 -0.0000558832740417   1   2   7   4
     -0.0000539782890968  0.0000041637614042   1   2   7   5
     -0.0000145067336902 -0.0000084774813872   1   2   7   8
      0.0000735815397765 -0.0000280142255770   1   2   7   9
      0.0000023748761954 -0.0000361650566970   1   2   7  11
      0.0000248779522897  0.0000615206705911   1   2   7  14
      0.0000000392291749 -0.0000002076714660   1   2   8   2
      0.0000001237539636 -0.0000006551289214   1   2   8   3
     -0.0000057074081634  0.0000302138860255   1   2   8   6
     -0.0000000421123379  0.0000002229343594   1   2   8   7
     -0.0000084427125295  0.0000446940445114   1   2   8  10
     -0.0000000455969209  0.0000002413810501   1   2   8  12
     -0.0000071970018468  0.0000380994992763   1   2   8  13
     -0.0000074415408267  0.0000039831971365   1   2   9   3
      0.0000001078981863 -0.0000000577541339   1   2   9   6
     -0.0000401011446202  0.0000214647434106   1   2   9   7
      0.0000275577002807 -0.0000147506753529   1   2   9  10
     -0.0000316783691951  0.0000169563256332   1   2   9  12
      0.0000013701829088 -0.0000000000000002   1   2  10   1
     -0.0000008192773376 -0.0000142403779429   1   2  10   4
     -0.0000274296627731  0.0000021158612662   1   2  10   5
      0.0000679776901413  0.0000397249729193   1   2  10   8
      0.0000374727534374 -0.0000142667599892   1   2  10   9
      0.0000040596071797 -0.0000618204536159   1   2  10  11
      0.0000129013594936  0.0000319037627538   1   2  10  14
     -0.0000004855753262 -0.0000003691239034   1   2  11   2
     -0.0000014580009637 -0.0000011083889885   1   2  11   3
     -0.0000197976865870 -0.0000150497748962   1   2  11   6
     -0.0000001955603775 -0.0000001486607859   1   2  11   7
     -0.0000286044366035 -0.0000217444765469   1   2  11  10
     -0.0000002199664050 -0.0000001672143314   1   2  11  12
     -0.0000246833254366 -0.0000187637323228   1   2  11  13
      0.0003851102876189 -0.0000000000000000   1   2  12   1
      0.0000000231587678  0.0000004055396230   1   2  12   3
      0.0000040218055994  0.0000699055311591   1   2  12   4
     -0.0000409673882422  0.0000031601303568   1   2  12   5
      0.0000312915963646  0.0000182862614994   1   2  12   8
      0.0000578992882586 -0.0000220436229920   1   2  12   9
     -0.0000024814911445  0.0000377886090149   1   2  12  11
      0.0000201898477320  0.0000499274601544   1   2  12  14
      0.0000007744695555 -0.0000000000000001   1   2  13   1
      0.0000006124907454  0.0000106460891998   1   2  13   4
      0.0000220232811511 -0.0000016988254020   1   2  13   5
     -0.0000572945509455 -0.0000334819332201   1   2  13   8
     -0.0000321615250713  0.0000122446502532   1   2  13   9
     -0.0000035289457673  0.0000537394433405   1   2  13  11
     -0.0000114333598245 -0.0000282735473656   1   2  13  14
     -0.0000002559223934 -0.0000005026230175   1   2  14   2
     -0.0000039156166763 -0.0000076901401429   1   2  14   3
     -0.0000082459019925 -0.0000161946756302   1   2  14   6
     -0.0000175930582106 -0.0000345521776966   1   2  14   7
     -0.0000140685081604 -0.0000276300793219   1   2  14  12
     -0.0000113396368180 -0.0000222706673362   1   2  14  13
      0.0001386180277331  0.0024094076679141   1   3   1   1
      0.0000000710616074 -0.0000000817516310   1   3   1   2
     -0.0000019630480090  0.0000002496065704   1   3   1   3
     -0.0003344427567080  0.0000386099807940   1   3   1   4
     -0.0000000147475894 -0.0000001090232977   1   3   1   5
      0.0000008390947114 -0.0000009653224006   1   3   1   6
     -0.0000589926750959  0.0001157369087091   1   3   1   8
     -0.0000002197853063 -0.0000004905156005   1   3   1   9
      0.0000019302797106 -0.0000022206578284   1   3   1  10
     -0.0002066812517691 -0.0000016751626507   1   3   1  11
      0.0000012751602817 -0.0000014669866986   1   3   1  13
     -0.0000002089778413  0.0000000988293930   1   3   1  14
      0.0006675679337164 -0.0000000000000000   1   3   2   1
      0.0001388405234654  0.0024132750070491   1   3   2   2
     -0.0000193369141489 -0.0003361071426986   1   3   2   3
      0.0000071730397291  0.0001246791434497   1   3   2   4
      0.0000017860297317 -0.0000001377702375   1   3   2   5
     -0.0000000065191355 -0.0000001133133224   1   3   2   6
      0.0000074791114284  0.0001299991689826   1   3   2   7
      0.0000450392600454  0.0000263201556507   1   3   2   8
     -0.0000036421483778  0.0000013866516841   1   3   2   9
     -0.0000000306968338 -0.0000005335611930   1   3   2  10
     -0.0000047683837916  0.0000726618949478   1   3   2  11
     -0.0000118960575440 -0.0002067536341667   1   3   2  12
     -0.0000000134848247 -0.0000002343881262   1   3   2  13
     -0.0000009009015009 -0.0000022278386788   1   3   2  14
     -0.0001209737804603  0.0000000000000000   1   3   3   1
     -0.0000193765642887 -0.0003367940170689   1   3   3   2
      0.0000043125831734  0.0000749607327721   1   3   3   3
     -0.0000011596055887 -0.0000201558444445   1   3   3   4
      0.0000008126480164 -0.0000000626858053   1   3   3   5
     -0.0000030621535086 -0.0000532250583467   1   3   3   7
     -0.0000083969025920 -0.0000049070029783   1   3   3   8
     -0.0000020468730558  0.0000007792927886   1   3   3   9
      0.0000000177989512  0.0000002071280616   1   3   3  10
      0.0000007049956187 -0.0000107447109651   1   3   3  11
      0.0000022046493599  0.0000383157816583   1   3   3  12
     -0.0000002960370114 -0.0000007320697134   1   3   3  14
      0.0003373520754347 -0.0000000000000423   1   3   4   1
      0.0000000881849873  0.0000019308202727   1   3   4   2
      0.0000043193492753  0.0000750763479439   1   3   4   4
      0.0000001978291509  0.0000001926766692   1   3   4   6
      0.0000000159862992  0.0000003071361121   1   3   4   7
      0.0000460355581343  0.0000269023748253   1   3   4   8
     -0.0000001721914171  0.0000000655573338   1   3   4   9
      0.0000010738617822  0.0000010465114659   1   3   4  10
     -0.0000025145635737  0.0000382922564890   1   3   4  11
      0.0000000055355883 -0.0000001994333420   1   3   4  12
      0.0000001318001693  0.0000001283574977   1   3   4  13
      0.0000000025092039 -0.0000001285517356   1   3   5   1
      0.0000010037023718 -0.0000009894625477   1   3   5   2
     -0.0000002132410257  0.0000002104361185   1   3   5   3
      0.0000014638384887  0.0000254439029883   1   3   5   5
     -0.0000003550706918  0.0000003500331983   1   3   5   6
      0.0000015591180094 -0.0000015369983396   1   3   5   7
      0.0000011199034447 -0.0000011040247143   1   3   5  12
     -0.0000003212007608  0.0000003166434413   1   3   5  13
      0.0000405478682339 -0.0000154832246649   1   3   5  14
      0.0000019192640634 -0.0000000000000045   1   3   6   1
     -0.0000000075851642 -0.0000001318426738   1   3   6   2
     -0.0000000134222347 -0.0000002333004100   1   3   6   4
     -0.0000018563513741  0.0000001431946873   1   3   6   5
      0.0000014646095322  0.0000254573053506   1   3   6   6
      0.0000038252576785  0.0000022354136646   1   3   6   8
      0.0000026378271649 -0.0000010042829426   1   3   6   9
      0.0000002334083379 -0.0000035543659960   1   3   6  11
      0.0000024939846240  0.0000433495252467   1   3   6  13
      0.0000009668645475  0.0000023909577708   1   3   6  14
      0.0000521716989884  0.0000000000000017   1   3   7   1
      0.0000074873364067  0.0001301421325503   1   3   7   2
     -0.0000030584749873 -0.0000531612894918   1   3   7   3
      0.0000005935110033  0.0000103161904026   1   3   7   4
      0.0000043483358143 -0.0000003354206499   1   3   7   5
      0.0000044994580488  0.0000782079280102   1   3   7   7
      0.0000008213029091  0.0000004799550522   1   3   7   8
     -0.0000057857873827  0.0000022027855555   1   3   7   9
     -0.0000005305333674  0.0000080760309769   1   3   7  11
      0.0000007498822289  0.0000130363206337   1   3   7  12
     -0.0000022687967456 -0.0000056105058669   1   3   7  14
      0.0000719558901469  0.0001083270176866   1   3   8   1
     -0.0000002498457816  0.0000001995633283   1   3   8   3
     -0.0000425953865874  0.0000319659797604   1   3   8   4
      0.0000003939547591 -0.0000020855183070   1   3   8   6
      0.0000044973267132  0.0000781708819274   1   3   8   8
      0.0000005125704395 -0.0000027134461853   1   3   8  10
      0.0000113427656386 -0.0000065057685757   1   3   8  11
      0.0000005407778292 -0.0000028627704854   1   3   8  13
      0.0000001536710054 -0.0000004858944549   1   3   9   1
      0.0000011981667535 -0.0000006413368566   1   3   9   2
     -0.0000013170577929  0.0000007059629912   1   3   9   3
      0.0000002233097708  0.0000000507058796   1   3   9   4
      0.0000035069103720 -0.0000018771267494   1   3   9   7
      0.0000038847042892  0.0000675225039487   1   3   9   9
      0.0000007113056272 -0.0000003807370816   1   3   9  10
      0.0000014994085299 -0.0000008025866731   1   3   9  12
     -0.0000023134475601 -0.0000000000000108   1   3  10   1
     -0.0000000290949934 -0.0000005057184225   1   3  10   2
      0.0000000127662989  0.0000002218990437   1   3  10   3
     -0.0000000463491916 -0.0000008056247709   1   3  10   4
      0.0000028155540083 -0.0000002171853770   1   3  10   5
     -0.0000063952938184 -0.0000037372978310   1   3  10   8
     -0.0000040144500636  0.0000015283957088   1   3  10   9
      0.0000038864207450  0.0000675523383808   1   3  10  10
     -0.0000003081279280  0.0000046922374968   1   3  10  11
     -0.0000014680972036 -0.0000036304565342   1   3  10  14
      0.0002050130341715 -0.0000253522130883   1   3  11   1
      0.0000000615349269  0.0000002305233301   1   3  11   3
      0.0000068744756491  0.0000376704588096   1   3  11   4
      0.0000012862565582  0.0000009777940541   1   3  11   6
     -0.0000120037400136 -0.0000051574442915   1   3  11   8
      0.0000024681436607  0.0000018762352606   1   3  11  10
      0.0000023153426370  0.0000402456239705   1   3  11  11
      0.0000019062116218  0.0000014490634215   1   3  11  13
     -0.0000727683048930 -0.0000000031409570   1   3  12   1
     -0.0000118884316154 -0.0002066404776234   1   3  12   2
      0.0000021996724657  0.0000382337952109   1   3  12   3
     -0.0000006428618260 -0.0000111841250778   1   3  12   4
      0.0000035971492393 -0.0000002774768943   1   3  12   5
      0.0000007493560268  0.0000130250730888   1   3  12   7
     -0.0000069950892155 -0.0000040875776554   1   3  12   8
     -0.0000057026944717  0.0000021711490635   1   3  12   9
      0.0000002742430088 -0.0000041762348749   1   3  12  11
      0.0000023182147519  0.0000402931692762   1   3  12  12
     -0.0000018970658576 -0.0000046912526125   1   3  12  14
      0.0000026094491224 -0.0000000000000002   1   3  13   1
     -0.0000000149594699 -0.0000002600200024   1   3  13   2
     -0.0000000235549222 -0.0000004094230238   1   3  13   4
     -0.0000025716429185  0.0000001983703057   1   3  13   5
      0.0000024929524776  0.0000433315847212   1   3  13   6
      0.0000054782756563  0.0000032014084531   1   3  13   8
      0.0000036572647887 -0.0000013924068633   1   3  13   9
      0.0000003128362165 -0.0000047639209042   1   3  13  11
      0.0000031219813700  0.0000542651337895   1   3  13  13
      0.0000013229579410  0.0000032715417499   1   3  13  14
      0.0000002432485305  0.0000000824528926   1   3  14   1
      0.0000009746703365  0.0000019142199322   1   3  14   2
     -0.0000000898634305 -0.0000001762574122   1   3  14   3
     -0.0000420386047481 -0.0000107264156689   1   3  14   5
     -0.0000002047495920 -0.0000004021208016   1   3  14   6
      0.0000014553979554  0.0000028583528884   1   3  14   7
      0.0000009561856661  0.0000018779133666   1   3  14  12
     -0.0000001820105729 -0.0000003574626761   1   3  14  13
      0.0000031206430347  0.0000542418717632   1   3  14  14
      0.0238864125980481  0.4151848554236798   1   4   1   1
     -0.0003344427567080  0.0000386099807940   1   4   1   3
     -0.0576306047916972  0.0066532289395879   1   4   1   4
     -0.0000025412772584 -0.0000187867014739   1   4   1   5
     -0.0101655131321078  0.0199435788078688   1   4   1   8
     -0.0000378730152317 -0.0000845247770417   1   4   1   9
     -0.0356149456375208 -0.0002886622648153   1   4   1  11
     -0.0000044127206288 -0.0000000354357457   1   4   1  12
     -0.0000360106894366  0.0000170301050831   1   4   1  14
     -0.0000038740413496  0.0000000000000012   1   4   2   1
      0.0239247526678781  0.4158512684433818   1   4   2   2
     -0.0033391635616171 -0.0580401152694576   1   4   2   3
      0.0000193369140876  0.0003361071426827   1   4   2   4
     -0.0000011233667990 -0.0000195259494008   1   4   2   6
      0.0012887872106863  0.0224012262009667   1   4   2   7
     -0.0000002613725999 -0.0000001527418467   1   4   2   8
     -0.0000052896248208 -0.0000919423169449   1   4   2  10
      0.0000002816367089  0.0000039926495216   1   4   2  11
     -0.0020498056953549 -0.0356289702546115   1   4   2  12
     -0.0000023236795319 -0.0000403893448387   1   4   2  13
      0.0003373520754347  0.0000000000000423   1   4   3   1
     -0.0033389109185162 -0.0580357239332913   1   4   3   2
      0.0007443067407793  0.0129372665383001   1   4   3   3
      0.0000005734076167  0.0000099668700401   1   4   3   6
     -0.0005276630765853 -0.0091716459008612   1   4   3   7
      0.0000460355581275  0.0000269023749578   1   4   3   8
     -0.0000001721914281  0.0000000655573460   1   4   3   9
      0.0000019931173213  0.0000346442270808   1   4   3  10
     -0.0000025616257234  0.0000374742017631   1   4   3  11
      0.0003798672563541  0.0066027233756337   1   4   3  12
      0.0000003999792048  0.0000069523645819   1   4   3  13
      0.0580089797212993 -0.0000000000000001   1   4   4   1
      0.0000193765642632  0.0003367940170510   1   4   4   2
     -0.0000000067534482 -0.0000001183814295   1   4   4   3
      0.0007431325426088  0.0129168570682844   1   4   4   4
     -0.0000104690918986  0.0000008075617219   1   4   4   5
      0.0000030621536310  0.0000532250583975   1   4   4   7
      0.0079241016607526  0.0046307063860812   1   4   4   8
     -0.0000317175938948  0.0000120756352013   1   4   4   9
     -0.0000000177999103 -0.0000002071286065   1   4   4  10
     -0.0004325848769581  0.0065874919198593   1   4   4  11
     -0.0000022581561576 -0.0000375009699035   1   4   4  12
      0.0000028282803045  0.0000069940525222   1   4   4  14
      0.0000004323830155 -0.0000221518082085   1   4   5   1
      0.0000069047241476 -0.0000002621674092   1   4   5   4
      0.0002522460491570  0.0043844482306250   1   4   5   5
      0.0000062313089316 -0.0000102007195756   1   4   5   8
     -0.0000026262389891 -0.0000073248140853   1   4   5   9
     -0.0000125605456775 -0.0000010713666155   1   4   5  11
      0.0069871367304372 -0.0026680418072714   1   4   5  14
     -0.0000013070633663 -0.0000227188955441   1   4   6   2
      0.0000003671865830  0.0000063823023886   1   4   6   3
      0.0002523789175023  0.0043867576994268   1   4   6   6
     -0.0000008162916483 -0.0000141884818348   1   4   6   7
     -0.0000008978791769 -0.0000156066066569   1   4   6  10
     -0.0000008374630717 -0.0000145564702378   1   4   6  12
      0.0004297590043981  0.0074699132936755   1   4   6  13
     -0.0000003027635025  0.0000000000002868   1   4   7   1
      0.0012902045245024  0.0224258614294228   1   4   7   2
     -0.0005276067463992 -0.0091706667892651   1   4   7   3
      0.0000030584748695  0.0000531612895564   1   4   7   4
     -0.0000008618825744 -0.0000149809264705   1   4   7   6
      0.0007753386285412  0.0134766514259324   1   4   7   7
     -0.0000000102027881 -0.0000001773411380   1   4   7  10
     -0.0000000129323411 -0.0000003251672668   1   4   7  11
      0.0001292296998314  0.0022462231917470   1   4   7  12
      0.0000003687496989  0.0000064094718654   1   4   7  13
      0.0123993113486028  0.0186667195345758   1   4   8   1
     -0.0000425953865666  0.0000319659798906   1   4   8   3
     -0.0073399641147461  0.0055083349873521   1   4   8   4
     -0.0000078486858396 -0.0000100440859109   1   4   8   5
      0.0007749713606792  0.0134702677107746   1   4   8   8
     -0.0000029143416924 -0.0000020836194205   1   4   8   9
      0.0019545651360404 -0.0011210618723410   1   4   8  11
      0.0000002421888329 -0.0000001390622693   1   4   8  12
      0.0000054228656557 -0.0000079233304864   1   4   8  14
      0.0000264803162318 -0.0000837284706378   1   4   9   1
      0.0000002233097672  0.0000000507059126   1   4   9   3
      0.0000371619899379  0.0000094432163843   1   4   9   4
      0.0000017730497685 -0.0000075955827318   1   4   9   5
      0.0000040100305862 -0.0000036295028531   1   4   9   8
      0.0006694053523172  0.0116353581051367   1   4   9   9
     -0.0000084275517910 -0.0000032870176189   1   4   9  11
      0.0000107102674562 -0.0000008367670630   1   4   9  14
     -0.0000050135969554 -0.0000871445018008   1   4  10   2
      0.0000022461403507  0.0000390415869690   1   4  10   3
     -0.0000000127654052 -0.0000002218997144   1   4  10   4
     -0.0000009017197697 -0.0000156733616252   1   4  10   6
     -0.0000001150900004 -0.0000020004521193   1   4  10   7
      0.0006697011253259  0.0116404991230023   1   4  10  10
     -0.0000003440886698 -0.0000059808301853   1   4  10  12
     -0.0000000260815381 -0.0000004533402250   1   4  10  13
      0.0353259282633137 -0.0043686483847034   1   4  11   1
      0.0000002534574760  0.0000044113007148   1   4  11   2
      0.0000068273570948  0.0000368514615537   1   4  11   3
      0.0011846058916894  0.0064910891666675   1   4  11   4
      0.0000116662445897 -0.0000023651978839   1   4  11   5
     -0.0000000158804273 -0.0000002779827793   1   4  11   7
     -0.0020686124975809 -0.0008888089071603   1   4  11   8
      0.0000099290227964 -0.0000052555516766   1   4  11   9
      0.0003989824227942  0.0069349660054247   1   4  11  11
     -0.0000004151835931 -0.0000007469384362   1   4  11  14
      0.0000047990665006 -0.0000005412441353   1   4  12   1
     -0.0020485947268233 -0.0356079215315498   1   4  12   2
      0.0003796741363014  0.0065993463274986   1   4  12   3
     -0.0000020529006773 -0.0000374295673112   1   4  12   4
     -0.0000007971093132 -0.0000138550460809   1   4  12   6
      0.0001291281337282  0.0022444578192072   1   4  12   7
     -0.0000002157008488 -0.0000000863996833   1   4  12   8