 &FCI NORB=   4,NELEC=   4,MS2=   0,
  ORBSYM=1,1,5,5,
  ISYM=   1,
 &END
  0.5083005873650535   1   1   1   1
 -0.0835459086512840   2   1   1   1
  0.1076815370927074   2   1   2   1
  0.4572694352280730   2   2   1   1
 -0.0100608470657836   2   2   2   1
  0.4784591329679811   2   2   2   2
  0.1574061778058489   3   1   3   1
  0.0993405570755782   3   2   3   1
  0.1374351327354099   3   2   3   2
  0.4461364192800015   3   3   1   1
  0.0084521602317983   3   3   2   1
  0.4580462666725860   3   3   2   2
  0.4643541303892593   3   3   3   3
  0.0438881946384188   4   1   3   1
 -0.0506042408447451   4   1   3   2
  0.0961125611297119   4   1   4   1
 -0.1499542996516508   4   2   3   1
 -0.1001454245853301   4   2   3   2
 -0.0417868416057297   4   2   4   1
  0.1620733564542278   4   2   4   2
  0.0863399164218551   4   3   1   1
 -0.0976978638405583   4   3   2   1
  0.0057797921839576   4   3   2   2
  0.0061930277367071   4   3   3   3
  0.1041640621973593   4   3   4   3
  0.5356531754984089   4   4   1   1
 -0.0883962591474130   4   4   2   1
  0.4937434673290135   4   4   2   2
  0.4759993959666290   4   4   3   3
  0.0964549048512121   4   4   4   3
  0.5984396674789886   4   4   4   4
 -1.8949790694781372   1   1   0   0
  0.1659823199669079   2   1   0   0
 -1.2671442803486719   2   2   0   0
 -1.5938621951645464   3   3   0   0
 -0.1349845028241667   4   3   0   0
 -0.8813390261806380   4   4   0   0
  2.4074074074074074   0   0   0   0
