 &FCI NORB=   8,NELEC=   8,MS2=   0,
  ORBSYM=1,1,1,1,5,5,5,5,
  ISYM=   1,
 &END
  0.3883764765652521   1   1   1   1
 -0.0742236233980967   2   1   1   1
  0.0879610215987284   2   1   2   1
  0.3022287765801587   2   2   1   1
  0.0008035786931172   2   2   2   1
  0.3223155085005515   2   2   2   2
  0.0041377463099594   3   1   1   1
 -0.0380970669305861   3   1   2   1
  0.0155171988140027   3   1   2   2
  0.0630910736414704   3   1   3   1
 -0.0767010694426117   3   2   1   1
  0.0569701119821185   3   2   2   1
 -0.0084437054573196   3   2   2   2
 -0.0064905625044177   3   2   3   1
  0.0757243406210105   3   2   3   2
  0.3308181281353874   3   3   1   1
 -0.0202951708150592   3   3   2   1
  0.3074197844779283   3   3   2   2
 -0.0035222281416206   3   3   3   1
 -0.0187500396274933   3   3   3   2
  0.3334106826102578   3   3   3   3
  0.0025980257921681   4   1   1   1
 -0.0014343803370968   4   1   2   1
  0.0224376977947404   4   1   2   2
  0.0254977481984615   4   1   3   1
 -0.0202816362310391   4   1   3   2
 -0.0066871417726503   4   1   3   3
  0.0407261468412721   4   1   4   1
  0.0064409783859271   4   2   1   1
  0.0320210162318513   4   2   2   1
  0.0084399502497146   4   2   2   2
 -0.0398173715354756   4   2   3   1
 -0.0138719170258719   4   2   3   2
 -0.0042555416101731   4   2   3   3
  0.0093951615889038   4   2   4   1
  0.0543226025187803   4   2   4   2
  0.0829958311941146   4   3   1   1
 -0.0679675485625838   4   3   2   1
 -0.0077862893008643   4   3   2   2
 -0.0060164212639772   4   3   3   1
 -0.0602620640927058   4   3   3   2
  0.0292863311772715   4   3   3   3
 -0.0181120093231256   4   3   4   1
 -0.0037900764812025   4   3   4   2
  0.0897048696560229   4   3   4   3
  0.3337802215015296   4   4   1   1
  0.0116930307187506   4   4   2   1
  0.3216868770009175   4   4   2   2
 -0.0357343145344448   4   4   3   1
 -0.0218325387875486   4   4   3   2
  0.3343998059631866   4   4   3   3
  0.0000927494050403   4   4   4   1
  0.0424450184510658   4   4   4   2
  0.0185263881461513   4   4   4   3
  0.3834165901941776   4   4   4   4
  0.1291303811370217   5   1   5   1
  0.0817558921050056   5   2   5   1
  0.1147330814158500   5   2   5   2
 -0.0528114806420037   5   3   5   1
 -0.0078029062021673   5   3   5   2
  0.0660281971406986   5   3   5   3
 -0.0015306784625903   5   4   5   1
  0.0275007134243881   5   4   5   2
 -0.0016270169073310   5   4   5   3
  0.0555853373549062   5   4   5   4
  0.3127247214597316   5   5   1   1
  0.0185722145551020   5   5   2   1
  0.3044538293620986   5   5   2   2
 -0.0376631434158491   5   5   3   1
 -0.0167434368557467   5   5   3   2
  0.3121175010738254   5   5   3   3
 -0.0002863808512367   5   5   4   1
  0.0408606952234383   5   5   4   2
  0.0127644032754845   5   5   4   3
  0.3496368882632985   5   5   4   4
  0.3351512664637348   5   5   5   5
  0.0515679744900140   6   1   5   1
 -0.0266666179493332   6   1   5   2
 -0.0426493168463511   6   1   5   3
 -0.0285457032848056   6   1   5   4
  0.0767783440150795   6   1   6   1
 -0.0931842678010069   6   2   5   1
 -0.0909640102548903   6   2   5   2
 -0.0057355139279986   6   2   5   3
 -0.0007114154525411   6   2   5   4
 -0.0096963172687538   6   2   6   1
  0.1120343551730486   6   2   6   2
 -0.0759347017534195   6   3   5   1
 -0.0747697193193570   6   3   5   2
  0.0115251317645755   6   3   5   3
  0.0267160132457243   6   3   5   4
 -0.0059553091343847   6   3   6   1
  0.0765937572537995   6   3   6   2
  0.0910073782661388   6   3   6   3
 -0.0543803812663090   6   4   5   1
 -0.0073578723268994   6   4   5   2
  0.0609957100847095   6   4   5   3
  0.0007513111085884   6   4   5   4
 -0.0455368425837314   6   4   6   1
  0.0017115995426561   6   4   6   2
  0.0130455741157716   6   4   6   3
  0.0662862761170794   6   4   6   4
  0.0795484189702942   6   5   1   1
 -0.0645047974160769   6   5   2   1
 -0.0154948883745652   6   5   2   2
 -0.0144166614073180   6   5   3   1
 -0.0580344228995122   6   5   3   2
  0.0259172079244831   6   5   3   3
 -0.0218941551619751   6   5   4   1
 -0.0005856350676801   6   5   4   2
  0.0819837553602768   6   5   4   3
  0.0179518116792811   6   5   4   4
  0.0130367852192193   6   5   5   5
  0.0860671327477913   6   5   6   5
  0.3263311617461149   6   6   1   1
 -0.0198263119731010   6   6   2   1
  0.3046646318039523   6   6   2   2
 -0.0035341775825059   6   6   3   1
 -0.0088707913408986   6   6   3   2
  0.3218423058657131   6   6   3   3
 -0.0140280380761925   6   6   4   1
 -0.0011534584212726   6   6   4   2
  0.0278432096304502   6   6   4   3
  0.3281736804595097   6   6   4   4
  0.3084066268905465   6   6   5   5
  0.0256183941940051   6   6   6   5
  0.3275227943479547   6   6   6   6
  0.0026347408557799   7   1   5   1
  0.0284900578179578   7   1   5   2
 -0.0234049895748443   7   1   5   3
  0.0258261950811524   7   1   5   4
 -0.0269184657277097   7   1   6   1
  0.0149068060131223   7   1   6   2
 -0.0045763909800150   7   1   6   3
 -0.0166677234686534   7   1   6   4
  0.0444723424424740   7   1   7   1
  0.0449516586481850   7   2   5   1
 -0.0004620630621903   7   2   5   2
 -0.0479820620356555   7   2   5   3
  0.0287507329111047   7   2   5   4
  0.0440664634849009   7   2   6   1
 -0.0020271873602333   7   2   6   2
  0.0234564963965513   7   2   6   3
 -0.0481647668456592   7   2   6   4
  0.0055165732714757   7   2   7   1
  0.0727940586285807   7   2   7   2
 -0.0965642511844930   7   3   5   1
 -0.0930820992193097   7   3   5   2
  0.0040533548513824   7   3   5   3
 -0.0031339003608328   7   3   5   4
 -0.0103470709530117   7   3   6   1
  0.1062392999864555   7   3   6   2
  0.0775247520140422   7   3   6   3
  0.0006186807473810   7   3   6   4
  0.0071034621803450   7   3   7   1
 -0.0057637935486244   7   3   7   2
  0.1140921817269446   7   3   7   3
  0.0879290107787418   7   4   5   1
  0.1128557417362806   7   4   5   2
 -0.0115906896884691   7   4   5   3
  0.0256370876161629   7   4   5   4
 -0.0185113560522945   7   4   6   1
 -0.0943794849519831   7   4   6   2
 -0.0782868426824728   7   4   6   3
 -0.0117540080256593   7   4   6   4
  0.0260712847902000   7   4   7   1
  0.0030291498857916   7   4   7   2
 -0.0984581448031437   7   4   7   3
  0.1233476530400288   7   4   7   4
  0.0048973067936347   7   5   1   1
  0.0327625688919268   7   5   2   1
  0.0066499449339708   7   5   2   2
 -0.0396439885776156   7   5   3   1
 -0.0191180674322624   7   5   3   2
 -0.0001855920470211   7   5   3   3
  0.0140834324723949   7   5   4   1
  0.0506233443134891   7   5   4   2
 -0.0043396843834149   7   5   4   3
  0.0397730105448846   7   5   4   4
  0.0397567844139522   7   5   5   5
 -0.0015332618945781   7   5   6   5
 -0.0090802154017122   7   5   6   6
  0.0558949587628809   7   5   7   5
 -0.0792894503599203   7   6   1   1
  0.0589503353876772   7   6   2   1
 -0.0101324213537020   7   6   2   2
 -0.0067563927781286   7   6   3   1
  0.0702716219071847   7   6   3   2
 -0.0148686070054331   7   6   3   3
 -0.0145369357023468   7   6   4   1
 -0.0164886687534725   7   6   4   2
 -0.0619265454370364   7   6   4   3
 -0.0232009798017358   7   6   4   4
 -0.0177287204974611   7   6   5   5
 -0.0603004640708992   7   6   6   5
 -0.0183901172525074   7   6   6   6
 -0.0119638327578330   7   6   7   5
  0.0759234153160206   7   6   7   6
  0.3162843006375954   7   7   1   1
 -0.0021791896284017   7   7   2   1
  0.3254020788744691   7   7   2   2
  0.0075539745202724   7   7   3   1
 -0.0143563102849204   7   7   3   2
  0.3210840720116964   7   7   3   3
  0.0196577315185140   7   7   4   1
  0.0110929403605652   7   7   4   2
 -0.0069066089002894   7   7   4   3
  0.3395204662240219   7   7   4   4
  0.3161165250214756   7   7   5   5
 -0.0043054644025033   7   7   6   5
  0.3151130740707234   7   7   6   6
  0.0107079597269651   7   7   7   5
 -0.0151753109999534   7   7   7   6
  0.3437399880459069   7   7   7   7
 -0.0008886483159694   8   1   5   1
 -0.0009312243587660   8   1   5   2
  0.0202828798430852   8   1   5   3
  0.0292105419962962   8   1   5   4
  0.0015890496141468   8   1   6   1
 -0.0172281322251585   8   1   6   2
  0.0311497822115894   8   1   6   3
  0.0187970718954141   8   1   6   4
 -0.0204329005785213   8   1   7   1
  0.0256345119266632   8   1   7   2
 -0.0151970966635480   8   1   7   3
 -0.0012022452704359   8   1   7   4
  0.0524098847132728   8   1   8   1
  0.0037885306918311   8   2   5   1
  0.0280035797375468   8   2   5   2
 -0.0197186574514448   8   2   5   3
  0.0251272453779324   8   2   5   4
 -0.0248020732228223   8   2   6   1
  0.0096511616299996   8   2   6   2
 -0.0052115394055474   8   2   6   3
 -0.0206111394440131   8   2   6   4
  0.0399920131719319   8   2   7   1
  0.0058719161491042   8   2   7   2
  0.0102456016146655   8   2   7   3
  0.0282393918871848   8   2   7   4
 -0.0192343961373904   8   2   8   1
  0.0420327318347242   8   2   8   2
  0.0517619996760386   8   3   5   1
 -0.0228163854433324   8   3   5   2
 -0.0438140053187318   8   3   5   3
 -0.0276751286197889   8   3   5   4
  0.0736865969635937   8   3   6   1
 -0.0100309379942164   8   3   6   2
 -0.0065452581756101   8   3   6   3
 -0.0468963576947496   8   3   6   4
 -0.0247268657622189   8   3   7   1
  0.0451763137889928   8   3   7   2
 -0.0115887413070661   8   3   7   3
 -0.0227662009817623   8   3   7   4
  0.0014678660573202   8   3   8   1
 -0.0254090131704675   8   3   8   2
  0.0809606554203110   8   3   8   3
  0.1372223815749669   8   4   5   1
  0.0889740577291150   8   4   5   2
 -0.0564581224291764   8   4   5   3
 -0.0012451876597391   8   4   5   4
  0.0538717979329287   8   4   6   1
 -0.1015505356186553   8   4   6   2
 -0.0834146961278656   8   4   6   3
 -0.0609515995772655   8   4   6   4
  0.0031704690200639   8   4   7   1
  0.0489638273545951   8   4   7   2
 -0.1071266171543550   8   4   7   3
  0.0992951956341356   8   4   7   4
 -0.0010684228651677   8   4   8   1
  0.0048851528751133   8   4   8   2
  0.0594903123408255   8   4   8   3
  0.1604992452099472   8   4   8   4
  0.0032266307292736   8   5   1   1
 -0.0013757583582660   8   5   2   1
  0.0224950479011419   8   5   2   2
  0.0241595796595060   8   5   3   1
 -0.0167713676925368   8   5   3   2
 -0.0102121031186530   8   5   3   3
  0.0373979370935850   8   5   4   1
  0.0124110825482229   8   5   4   2
 -0.0191647929085293   8   5   4   3
  0.0008852023866899   8   5   4   4
  0.0006935016129527   8   5   5   5
 -0.0204965082964471   8   5   6   5
 -0.0090433055105645   8   5   6   6
  0.0109960422930443   8   5   7   5
 -0.0179962724069645   8   5   7   6
  0.0209152482958489   8   5   7   7
  0.0388435235293782   8   5   8   5
  0.0030301922616587   8   6   1   1
 -0.0370282855372064   8   6   2   1
  0.0102454501084580   8   6   2   2
  0.0584161811699499   8   6   3   1
 -0.0065407401111223   8   6   3   2
 -0.0049519408212166   8   6   3   3
  0.0234690803362920   8   6   4   1
 -0.0400144447947574   8   6   4   2
 -0.0097888458751959   8   6   4   3
 -0.0403673596182649   8   6   4   4
 -0.0373819004580863   8   6   5   5
 -0.0102526402544555   8   6   6   5
 -0.0046525139464916   8   6   6   6
 -0.0390490696397570   8   6   7   5
 -0.0072847215909023   8   6   7   6
  0.0105516679497564   8   6   7   7
  0.0239122903575878   8   6   8   5
  0.0626263264612521   8   6   8   6
 -0.0786452447650264   8   7   1   1
  0.0894972528224111   8   7   2   1
 -0.0005610304586729   8   7   2   2
 -0.0377975879119765   8   7   3   1
  0.0608604470035176   8   7   3   2
 -0.0230968410082206   8   7   3   3
 -0.0016768591046811   8   7   4   1
  0.0336305805635763   8   7   4   2
 -0.0741667258734061   8   7   4   3
  0.0157543792682844   8   7   4   4
  0.0152804605470276   8   7   5   5
 -0.0679238042994411   8   7   6   5
 -0.0221871882327902   8   7   6   6
  0.0329648306233925   8   7   7   5
  0.0633758080308679   8   7   7   6
 -0.0034932735403411   8   7   7   7
 -0.0016223580831162   8   7   8   5
 -0.0409497368108732   8   7   8   6
  0.1024938168009636   8   7   8   7
  0.4176407543961412   8   8   1   1
 -0.0803900630416609   8   8   2   1
  0.3263621079630885   8   8   2   2
  0.0039285162722118   8   8   3   1
 -0.0850957024263648   8   8   3   2
  0.3621843282085423   8   8   3   3
  0.0028627168509582   8   8   4   1
  0.0081691328066886   8   8   4   2
  0.0952578474691020   8   8   4   3
  0.3726030378863747   8   8   4   4
  0.3371465953694103   8   8   5   5
  0.0873949041578640   8   8   6   5
  0.3548430922238213   8   8   6   6
  0.0058766652063669   8   8   7   5
 -0.0898116861935081   8   8   7   6
  0.3489144542936680   8   8   7   7
  0.0039487715869653   8   8   8   5
  0.0031299745212010   8   8   8   6
 -0.0919943260595301   8   8   8   7
  0.4766779365236615   8   8   8   8
 -2.6924551849343246   1   1   0   0
  0.1479878054918317   2   1   0   0
 -2.3205253098101779   2   2   0   0
  0.0454258249101811   3   1   0   0
  0.2437681155019427   3   2   0   0
 -2.0496819115441398   3   3   0   0
 -0.0338911025107472   4   1   0   0
 -0.0729584293409711   4   2   0   0
 -0.2085899090419881   4   3   0   0
 -1.5590060358491891   4   4   0   0
 -2.4867588289462494   5   5   0   0
 -0.2061582716713092   6   5   0   0
 -2.2260588823394549   6   6   0   0
 -0.1028186669862965   7   5   0   0
  0.2022123518425999   7   6   0   0
 -1.7775386436397396   7   7   0   0
 -0.0171879484162256   8   5   0   0
  0.0436087262369246   8   6   0   0
  0.1613763331777515   8   7   0   0
 -1.4373383343994832   8   8   0   0
  7.6349206349206362   0   0   0   0
