 &FCI NORB= 16,NELEC= 16,MS2= 0,
  ORBSYM=1,1,1,1,1,1,1,1,1,1,1,1,1,1,1,1
  ISYM=1,
 /
 2.00  1  1  1  1
 2.00  2  2  2  2
 2.00  3  3  3  3
 2.00  4  4  4  4
 2.00  5  5  5  5
 2.00  6  6  6  6
 2.00  7  7  7  7
 2.00  8  8  8  8
 2.00  9  9  9  9
 2.00 10 10 10 10
 2.00 11 11 11 11
 2.00 12 12 12 12
 2.00 13 13 13 13
 2.00 14 14 14 14
 2.00 15 15 15 15
 2.00 16 16 16 16
 1.00  1  2  0  0
 1.00  2  3  0  0
 1.00  3  4  0  0
 1.00  4  5  0  0
 1.00  5  6  0  0
 1.00  6  7  0  0
 1.00  7  8  0  0
 1.00  8  9  0  0
 1.00  9 10  0  0
 1.00 10 11  0  0
 1.00 11 12  0  0
 1.00 12 13  0  0
 1.00 13 14  0  0
 1.00 14 15  0  0
 1.00 15 16  0  0
 0.00  0  0  0  0
