 &FCI NORB= 8,NELEC= 8,MS2= 0,
  ORBSYM=1,1,1,1,1,1,1,1,
  ISYM=1,
 /
 2.00 1 1 1 1
 2.00 2 2 2 2
 2.00 3 3 3 3
 2.00 4 4 4 4
 2.00 5 5 5 5
 2.00 6 6 6 6
 2.00 7 7 7 7
 2.00 8 8 8 8
 1.00 1 2 0 0
 1.00 2 3 0 0
 1.00 3 4 0 0
 1.00 4 5 0 0
 1.00 5 6 0 0
 1.00 6 7 0 0
 1.00 7 8 0 0
 0.00 0 0 0 0