 &FCI NORB=2, NELEC=2, MS2=0,
  ORBSYM=1,1,
  ISYM=1,
 /
 2.00 1 1 1 1
 2.00 2 2 2 2
 1.00 1 2 0 0
 0.00 0 0 0 0