 &FCI NORB=  26,NELEC=  10,MS2=   0,
  ORBSYM=1,5,3,2,1,6,7,5,1,3,2,1,6,7,5,1,4,5,3,2,8,5,1,6,7,5,
  ISYM=   1,
  ITGENERAL=1,
 &END
  0.5322853565411895   1   1   1   1
  0.2057416986080300   2   1   2   1
  0.5316102363823842   2   2   1   1
  0.5445280153136596   2   2   2   2
  0.0825489629280488   3   1   3   1
  0.0394261717699486   3   2   3   2
  0.5377245607190692   3   3   1   1
  0.5112624791064402   3   3   2   2
  0.6226915760064134   3   3   3   3
  0.0825438350067545   4   1   4   1
  0.0391273571257241   4   2   4   2
  0.0261901963570226   4   3   4   3
  0.5397734740903076   4   4   1   1
  0.5128151794616038   4   4   2   2
  0.5735547519005327   4   4   3   3
  0.6292366869857289   4   4   4   4
  0.0227637013917480   5   1   1   1
 -0.0062934818139340   5   1   2   2
  0.0784316822681412   5   1   3   3
  0.0798287099526169   5   1   4   4
  0.0686618168537804   5   1   5   1
 -0.0850053632060859   5   2   2   1
  0.0461041610121329   5   2   5   2
  0.0434010724803095   5   3   3   1
  0.0557558721224110   5   3   5   3
  0.0443701663020512   5   4   4   1
  0.0570651616747208   5   4   5   4
  0.5977142229131814   5   5   1   1
  0.5558826087892147   5   5   2   2
  0.6786270455679351   5   5   3   3
  0.6834446972746205   5   5   4   4
  0.1371535337517105   5   5   5   1
  0.9290504455095515   5   5   5   5
  0.0484053225561564   6   1   4   2
  0.0606124788850540   6   1   6   1
  0.0725720837183259   6   2   4   1
  0.0241912822941562   6   2   5   4
  0.0739108351924194   6   2   6   2
  0.0185192032175733   6   3   6   3
  0.1594068600072642   6   4   2   1
 -0.0473450558885448   6   4   5   2
  0.1822414671847220   6   4   6   4
  0.0018758364016796   6   5   4   2
  0.0046080889875701   6   5   6   1
  0.0188658979328988   6   5   6   5
  0.5810062196140318   6   6   1   1
  0.5671783218798412   6   6   2   2
  0.5988652739882082   6   6   3   3
  0.6501733976588564   6   6   4   4
  0.0600074625216223   6   6   5   1
  0.7038603186410948   6   6   5   5
  0.7143148928537854   6   6   6   6
  0.0485480737718520   7   1   3   2
  0.0605907811841052   7   1   7   1
  0.0726459231010184   7   2   3   1
  0.0236974271777135   7   2   5   3
  0.0738764789500171   7   2   7   2
  0.1593266326686509   7   3   2   1
 -0.0474432409227915   7   3   5   2
  0.1446370174448035   7   3   6   4
  0.1813433730553466   7   3   7   3
  0.0185765183148246   7   4   6   3
  0.0186348017204998   7   4   7   4
  0.0017975933445160   7   5   3   2
  0.0046507715154956   7   5   7   1
  0.0188844593117588   7   5   7   5
  0.0240512167099572   7   6   4   3
  0.0290964110749091   7   6   7   6
  0.5811037191953703   7   7   1   1
  0.5672605262872801   7   7   2   2
  0.6469683982271035   7   7   3   3
  0.6020693106476965   7   7   4   4
  0.0600782014356077   7   7   5   1
  0.7040896870170171   7   7   5   5
  0.6563115278128302   7   7   6   6
  0.7146939646013125   7   7   7   7
  0.0117307258052158   8   1   2   1
 -0.0229071492888391   8   1   5   2
 -0.0222821526245642   8   1   6   4
 -0.0220711398142988   8   1   7   3
  0.0328225751365305   8   1   8   1
  0.0101173227348595   8   2   1   1
  0.0281785009416550   8   2   2   2
 -0.0261048942445305   8   2   3   3
 -0.0265723030152442   8   2   4   4
 -0.0372516558973493   8   2   5   1
 -0.0255070645821188   8   2   5   5
 -0.0125785045950104   8   2   6   6
 -0.0126117875938724   8   2   7   7
  0.0336936026206088   8   2   8   2
 -0.0221990282180055   8   3   3   2
 -0.0299144674375586   8   3   7   1
 -0.0223177983037384   8   3   7   5
  0.0368077660678933   8   3   8   3
 -0.0224154754798848   8   4   4   2
 -0.0301641253668510   8   4   6   1
 -0.0224929193073455   8   4   6   5
  0.0374336492901752   8   4   8   4
 -0.1330972443463889   8   5   2   1
  0.0399726599381916   8   5   5   2
 -0.1433687900781021   8   5   6   4
 -0.1428193707615207   8   5   7   3
  0.0232376330099434   8   5   8   1
  0.1829931610205516   8   5   8   5
 -0.0520742050169556   8   6   4   1
 -0.0496067058594392   8   6   5   4
 -0.0379883231582811   8   6   6   2
  0.0577945721323009   8   6   8   6
 -0.0519377105640226   8   7   3   1
 -0.0490502009890303   8   7   5   3
 -0.0380362267986960   8   7   7   2
  0.0578856444417106   8   7   8   7
  0.6186835897539715   8   8   1   1
  0.5887025654705306   8   8   2   2
  0.6876590780639162   8   8   3   3
  0.6922843671312423   8   8   4   4
  0.1106122186732221   8   8   5   1
  0.8890449055730965   8   8   5   5
  0.7437396337041325   8   8   6   6
  0.7439995754694136   8   8   7   7
 -0.0150713488189983   8   8   8   2
  0.9161942370866133   8   8   8   8
 -0.0021479964147628   9   1   1   1
 -0.0126801171980111   9   1   2   2
  0.0324189440044803   9   1   3   3
  0.0126493475253596   9   1   4   4
  0.0156847298526690   9   1   5   1
 -0.0112846013536133   9   1   5   5
  0.0053218817731990   9   1   6   6
  0.0237124231277440   9   1   7   7
 -0.0204421593415089   9   1   8   2
 -0.0035174776254244   9   1   8   8
  0.0346810986084623   9   1   9   1
 -0.0345337948274200   9   2   2   1
  0.0255460193881140   9   2   5   2
 -0.0103812342316741   9   2   6   4
  0.0013868103445750   9   2   7   3
 -0.0193604412714618   9   2   8   1
  0.0124830033989823   9   2   8   5
  0.0316684666773784   9   2   9   2
  0.0555042634272548   9   3   3   1
  0.0239144076943858   9   3   5   3
  0.0456353454322259   9   3   7   2
 -0.0324179333980605   9   3   8   7
  0.0547222896009309   9   3   9   3
  0.0085587458098678   9   4   4   1
 -0.0043132581444424   9   4   5   4
  0.0074935830958688   9   4   6   2
 -0.0007507810903114   9   4   8   6
  0.0133860692877854   9   4   9   4
 -0.0444639598347713   9   5   1   1
 -0.0233489290571864   9   5   2   2
 -0.0794281177106283   9   5   3   3
 -0.0921716822135805   9   5   4   4
 -0.0617283577135940   9   5   5   1
 -0.1886937918777092   9   5   5   5
 -0.0874741980535373   9   5   6   6
 -0.0807389989695108   9   5   7   7
  0.0210798915756448   9   5   8   2
 -0.1587116053722763   9   5   8   8
  0.0014439551756515   9   5   9   1
  0.0890266385489751   9   5   9   5
  0.0026209455853473   9   6   4   2
  0.0024875987516887   9   6   6   1
 -0.0013309129462152   9   6   6   5
 -0.0003156621467860   9   6   8   4
  0.0058962341340677   9   6   9   6
  0.0243998432938366   9   7   3   2
  0.0295260491809106   9   7   7   1
  0.0029672298350353   9   7   7   5
 -0.0166157321765230   9   7   8   3
  0.0238185165292805   9   7   9   7
 -0.0346805166716103   9   8   2   1
  0.0189825933555151   9   8   5   2
 -0.0072920693394891   9   8   6   4
 -0.0169893597222346   9   8   7   3
 -0.0129578173380725   9   8   8   1
 -0.0177454538118424   9   8   8   5
  0.0088000338893701   9   8   9   2
  0.0294283247559830   9   8   9   8
  0.4832929627162620   9   9   1   1
  0.4698593644216439   9   9   2   2
  0.5195796014503745   9   9   3   3
  0.4974127815717192   9   9   4   4
  0.0463038761975467   9   9   5   1
  0.5933122424285123   9   9   5   5
  0.5124144740025690   9   9   6   6
  0.5320962126409335   9   9   7   7
 -0.0054882506402046   9   9   8   2
  0.5823814772452108   9   9   8   8
  0.0024997018241004   9   9   9   1
 -0.0594956838659026   9   9   9   5
  0.4867893573339879   9   9   9   9
  0.0031667853699294  10   1   3   1
 -0.0237508745886938  10   1   5   3
  0.0119783597032878  10   1   7   2
  0.0151005101700237  10   1   8   7
  0.0048338345269426  10   1   9   3
  0.0268374151845746  10   1  10   1
  0.0167480127346215  10   2   3   2
  0.0181393809144793  10   2   7   1
 -0.0094545740378093  10   2   7   5
  0.0018920035484684  10   2   8   3
  0.0061973527396748  10   2   9   7
  0.0207899121201250  10   2  10   2
 -0.0730060850600325  10   3   1   1
 -0.0511496219260368  10   3   2   2
 -0.1247567906604186  10   3   3   3
 -0.1117115015373008  10   3   4   4
 -0.0593936037153803  10   3   5   1
 -0.1868868131082376  10   3   5   5
 -0.1118026747092163  10   3   6   6
 -0.1224931782848635  10   3   7   7
  0.0216882595517217  10   3   8   2
 -0.1751917175070837  10   3   8   8
 -0.0055322639220777  10   3   9   1
  0.0551137164815942  10   3   9   5
 -0.0769205612374210  10   3   9   9
  0.0829511715094687  10   3  10   3
 -0.0076661071451070  10   4   4   3
 -0.0054835143724326  10   4   7   6
  0.0099910980403821  10   4  10   4
 -0.0626392171141170  10   5   3   1
 -0.0565146312473222  10   5   5   3
 -0.0461790996854015  10   5   7   2
  0.0514618843623329  10   5   8   7
 -0.0298809782383528  10   5   9   3
  0.0117356199674600  10   5  10   1
  0.0717055147278554  10   5  10   5
 -0.0029249754046032  10   6   6   3
 -0.0029951504113232  10   6   7   4
  0.0052847352219158  10   6  10   6
  0.0116364192977586  10   7   2   1
 -0.0158773530805675  10   7   5   2
 -0.0144647638742100  10   7   6   4
 -0.0200819486546328  10   7   7   3
  0.0188254732554221  10   7   8   1
  0.0331763473874263  10   7   8   5
 -0.0096095608769113  10   7   9   2
 -0.0144721706314184  10   7   9   8
  0.0313174449490434  10   7  10   7
  0.0162796406008876  10   8   3   2
  0.0226558903006206  10   8   7   1
  0.0154651709759687  10   8   7   5
 -0.0253253168877203  10   8   8   3
  0.0067023356466354  10   8   9   7
  0.0002356027150533  10   8  10   2
  0.0221565749448749  10   8  10   8
  0.0076800341935573  10   9   3   1
  0.0079550223724128  10   9   5   3
  0.0041529697212241  10   9   7   2
 -0.0077250939428580  10   9   8   7
  0.0057175932484973  10   9   9   3
 -0.0002750567218778  10   9  10   1
 -0.0085168605456414  10   9  10   5
  0.0110558161568427  10   9  10   9
  0.4686746900409146  10  10   1   1
  0.4495775069192891  10  10   2   2
  0.5252131726451430  10  10   3   3
  0.4901917945140737  10  10   4   4
  0.0581338486092096  10  10   5   1
  0.5863999756348014  10  10   5   5
  0.5027294475647146  10  10   6   6
  0.5322523897856258  10  10   7   7
 -0.0155908468032083  10  10   8   2
  0.5753988905069846  10  10   8   8
  0.0136709985638907  10  10   9   1
 -0.0635786341937248  10  10   9   5
  0.4605372357697400  10  10   9   9
 -0.0878789922904930  10  10  10   3
  0.4743426315811019  10  10  10  10
 -0.0069526926428559  11   1   4   1
 -0.0137019478738559  11   1   5   4
 -0.0074109510381738  11   1   6   2
  0.0125001932509704  11   1   8   6
  0.0062904504458784  11   1   9   4
  0.0167027807915725  11   1  11   1
 -0.0044727330410863  11   2   4   2
 -0.0077866255601521  11   2   6   1
 -0.0041426066633593  11   2   6   5
  0.0064244522054761  11   2   8   4
 -0.0001263459790800  11   2   9   6
  0.0102835499692455  11   2  11   2
 -0.0047798916690654  11   3   4   3
 -0.0075829077630988  11   3   7   6
  0.0070883870687145  11   3  10   4
  0.0080199414055488  11   3  11   3
 -0.0945555352454214  11   4   1   1
 -0.0849730796796942  11   4   2   2
 -0.1139315432955905  11   4   3   3
 -0.1255095451359498  11   4   4   4
 -0.0373863310498236  11   4   5   1
 -0.1800355072333756  11   4   5   5
 -0.1494618229901569  11   4   6   6
 -0.1340758048889769  11   4   7   7
  0.0082110067634946  11   4   8   2
 -0.1869803614743177  11   4   8   8
  0.0046947899200250  11   4   9   1
  0.0515831671236727  11   4   9   5
 -0.0797090822844636  11   4   9   9
  0.0545329909324906  11   4  10   3
 -0.0807356467666920  11   4  10  10
  0.0755023698716024  11   4  11   4
 -0.0326628716709296  11   5   4   1
 -0.0364817759145989  11   5   5   4
 -0.0217307042465178  11   5   6   2
  0.0344190669044014  11   5   8   6
  0.0058232236175955  11   5   9   4
  0.0075657720962273  11   5  11   1
  0.0273728441255326  11   5  11   5
 -0.0623891416847336  11   6   2   1
  0.0140598550212806  11   6   5   2
 -0.0877841707084051  11   6   6   4
 -0.0709256412373791  11   6   7   3
  0.0149974079076837  11   6   8   1
  0.0833553281186125  11   6   8   5
  0.0001086337055796  11   6   9   2
 -0.0089399956501053  11   6   9   8
  0.0202848034477731  11   6  10   7
  0.0613387715502475  11   6  11   6
 -0.0082046273166014  11   7   6   3
 -0.0082751717193573  11   7   7   4
  0.0045074063811884  11   7  10   6
  0.0069986560034185  11   7  11   7
  0.0109274042828244  11   8   4   2
  0.0160454336360591  11   8   6   1
  0.0162808715446212  11   8   6   5
 -0.0240045743530299  11   8   8   4
 -0.0030148910428362  11   8   9   6
 -0.0055736427045510  11   8  11   2
  0.0183807530994255  11   8  11   8
  0.0199323388255596  11   9   4   1
  0.0200721675845378  11   9   5   4
  0.0114443501163308  11   9   6   2
 -0.0175628467484673  11   9   8   6
  0.0023004014555678  11   9   9   4
 -0.0005849133273647  11   9  11   1
 -0.0124317596828854  11   9  11   5
  0.0130874478855771  11   9  11   9
  0.0137104521450571  11  10   4   3
  0.0110016140988672  11  10   7   6
 -0.0017203824433484  11  10  10   4
  0.0007633242963209  11  10  11   3
  0.0119525606458346  11  10  11  10
  0.4280304459286891  11  11   1   1
  0.4126775130640201  11  11   2   2
  0.4472150763127126  11  11   3   3
  0.4807412535049643  11  11   4   4
  0.0448639238432182  11  11   5   1
  0.5117137780120226  11  11   5   5
  0.4934689921085503  11  11   6   6
  0.4656104828589757  11  11   7   7
 -0.0142062403843647  11  11   8   2
  0.5208911319495384  11  11   8   8
  0.0088344440932208  11  11   9   1
 -0.0555886733018143  11  11   9   5
  0.4040009592668719  11  11   9   9
 -0.0630090327628551  11  11  10   3
  0.3988692876895104  11  11  10  10
 -0.0630450962859055  11  11  11   4
  0.4133522463772611  11  11  11  11
  0.0987732362882018  12   1   1   1
  0.1051130630071649  12   1   2   2
  0.0903597733211313  12   1   3   3
  0.0933224971592071  12   1   4   4
 -0.0008249390659607  12   1   5   1
  0.1213343664743056  12   1   5   5
  0.1255344479494799  12   1   6   6
  0.1236669296206845  12   1   7   7
  0.0167662195587974  12   1   8   2
  0.1439810201153564  12   1   8   8
 -0.0068982206405997  12   1   9   1
 -0.0195915651207931  12   1   9   5
  0.0617859141060004  12   1   9   9
 -0.0294812366091314  12   1  10   3
  0.0583313055951754  12   1  10  10
 -0.0477301579055828  12   1  11   4
  0.0521621824598624  12   1  11  11
  0.0614433016439674  12   1  12   1
  0.0816662302314800  12   2   2   1
 -0.0337879407437432  12   2   5   2
  0.0723368162971674  12   2   6   4
  0.0708706880316706  12   2   7   3
  0.0097113089298780  12   2   8   1
 -0.0717750831078306  12   2   8   5
 -0.0069102315512531  12   2   9   2
 -0.0055064568239614  12   2   9   8
 -0.0097573252948804  12   2  10   7
 -0.0461066143588172  12   2  11   6
  0.0687377876886591  12   2  12   2
  0.0022303302349481  12   3   3   1
 -0.0003727142808002  12   3   5   3
  0.0093674724289757  12   3   7   2
 -0.0017762051441371  12   3   8   7
 -0.0070944672631667  12   3   9   3
 -0.0058041709518664  12   3  10   1
 -0.0014200389379467  12   3  10   5
 -0.0032332374540517  12   3  10   9
  0.0152357678089202  12   3  12   3
  0.0076108683474024  12   4   4   1
  0.0027642145603980  12   4   5   4
  0.0136698664325169  12   4   6   2
 -0.0052810460236838  12   4   8   6
 -0.0048707128465425  12   4   9   4
 -0.0137744913747476  12   4  11   1
 -0.0022545816021392  12   4  11   5
 -0.0023935651278951  12   4  11   9
  0.0150790772668137  12   4  12   4
 -0.0415422814897496  12   5   1   1
 -0.0485615634339558  12   5   2   2
 -0.0308858838770498  12   5   3   3
 -0.0298321531954992  12   5   4   4
  0.0124413271328363  12   5   5   1
 -0.0324503575956212  12   5   5   5
 -0.0439874449950851  12   5   6   6
 -0.0447108391183800  12   5   7   7
 -0.0166005382731440  12   5   8   2
 -0.0482309871885480  12   5   8   8
  0.0018609554388434  12   5   9   1
 -0.0027341178401584  12   5   9   5
 -0.0224933034535743  12   5   9   9
  0.0029787067014589  12   5  10   3
 -0.0184136597949721  12   5  10  10
  0.0114541706880164  12   5  11   4
 -0.0181258091651209  12   5  11  11
 -0.0284454366935438  12   5  12   1
  0.0189980785833411  12   5  12   5
  0.0210355147299221  12   6   4   2
  0.0280050493101527  12   6   6   1
  0.0003192879019699  12   6   6   5
 -0.0104034961142071  12   6   8   4
  0.0000381008971713  12   6   9   6
 -0.0116904272871690  12   6  11   2
  0.0071755587581414  12   6  11   8
  0.0219836002168958  12   6  12   6
  0.0187547230285014  12   7   3   2
  0.0251945866225095  12   7   7   1
 -0.0001195629633399  12   7   7   5
 -0.0085914074255281  12   7   8   3
  0.0090463760608739  12   7   9   7
  0.0014741979636562  12   7  10   2
  0.0094097089379621  12   7  10   8
  0.0199068089846854  12   7  12   7
  0.0509757579837354  12   8   2   1
 -0.0286628405578229  12   8   5   2
  0.0305451714376851  12   8   6   4
  0.0315423135580196  12   8   7   3
  0.0169532958369269  12   8   8   1
 -0.0351058348752317  12   8   8   5
 -0.0113861106376490  12   8   9   2
 -0.0076446125741755  12   8   9   8
  0.0045891885664176  12   8  10   7
 -0.0139498800772872  12   8  11   6
  0.0326879437518056  12   8  12   2
  0.0263984350907604  12   8  12   8
 -0.0249388479566185  12   9   1   1
 -0.0193933741767305  12   9   2   2
 -0.0362030818429454  12   9   3   3
 -0.0344273844203794  12   9   4   4
 -0.0104259693532928  12   9   5   1
 -0.0384282425264782  12   9   5   5
 -0.0303419068620290  12   9   6   6
 -0.0289943962657376  12   9   7   7
  0.0028669567789047  12   9   8   2
 -0.0370827821291211  12   9   8   8
 -0.0107468203750171  12   9   9   1
  0.0085872354469761  12   9   9   5
 -0.0248550292694454  12   9   9   9
  0.0086936893422559  12   9  10   3
 -0.0271935859910237  12   9  10  10
  0.0058394498184941  12   9  11   4
 -0.0237619044169616  12   9  11  11
 -0.0094162874280347  12   9  12   1
  0.0073275802736023  12   9  12   5
  0.0170446949199661  12   9  12   9
 -0.0241845525189527  12  10   3   1
 -0.0097056162388702  12  10   5   3
 -0.0191919950115137  12  10   7   2
  0.0140873418751620  12  10   8   7
 -0.0186670017658825  12  10   9   3
 -0.0089707567759342  12  10  10   1
  0.0173230633092761  12  10  10   5
 -0.0053219088967290  12  10  10   9
  0.0089881360717302  12  10  12   3
  0.0190760636829185  12  10  12  10
 -0.0466635764476001  12  11   4   1
 -0.0162391694917447  12  11   5   4
 -0.0422343909498345  12  11   6   2
  0.0231301157388382  12  11   8   6
 -0.0084580293443961  12  11   9   4
 -0.0063815027150736  12  11  11   1
  0.0151632738259525  12  11  11   5
 -0.0120764559255974  12  11  11   9
  0.0028151587290224  12  11  12   4
  0.0391033762819568  12  11  12  11
  0.4545987424558700  12  12   1   1
  0.4632101396029280  12  12   2   2
  0.4423286978911476  12  12   3   3
  0.4433388449247209  12  12   4   4
 -0.0033560822524774  12  12   5   1
  0.4786697754719575  12  12   5   5
  0.4824168392388142  12  12   6   6
  0.4819852384349196  12  12   7   7
  0.0229019322973295  12  12   8   2
  0.5056010496021448  12  12   8   8
 -0.0089704566829701  12  12   9   1
 -0.0194486809058559  12  12   9   5
  0.4120192153622230  12  12   9   9
 -0.0388092524980709  12  12  10   3
  0.3971418089706494  12  12  10  10
 -0.0620465347057224  12  12  11   4
  0.3750387008354139  12  12  11  11
  0.0754719314275602  12  12  12   1
 -0.0364214603864230  12  12  12   5
 -0.0129648040965737  12  12  12   9
  0.4152317457140373  12  12  12  12
  0.0016290125958809  13   1   4   2
 -0.0004350602803729  13   1   6   1
 -0.0040716472917357  13   1   6   5
  0.0031868652757874  13   1   8   4
  0.0004034428536182  13   1   9   6
  0.0102378724671581  13   1  11   2
 -0.0042240988963172  13   1  11   8
 -0.0089805123436384  13   1  12   6
  0.0114556690326510  13   1  13   1
  0.0078604488065447  13   2   4   1
 -0.0011419175406403  13   2   5   4
  0.0049404887356052  13   2   6   2
 -0.0006471708907751  13   2   8   6
  0.0034244924549321  13   2   9   4
  0.0131361476793073  13   2  11   1
 -0.0031161377025058  13   2  11   5
  0.0016798969119466  13   2  11   9
 -0.0112716029264158  13   2  12   4
 -0.0137124686087220  13   2  12  11
  0.0152955022535457  13   2  13   2
 -0.0024121691768916  13   3   6   3
 -0.0024597189357409  13   3   7   4
  0.0031808388160250  13   3  10   6
  0.0041510964181825  13   3  11   7
  0.0034717353087971  13   3  13   3
 -0.0106590361335347  13   4   2   1
 -0.0009155062314796  13   4   5   2
 -0.0270371986172221  13   4   6   4
 -0.0217711657402720  13   4   7   3
  0.0066760951100960  13   4   8   1
  0.0321143484245656  13   4   8   5
 -0.0036685533283956  13   4   9   2
 -0.0089684442678760  13   4   9   8
  0.0138980142060226  13   4  10   7
  0.0303875504216534  13   4  11   6
 -0.0235066738694803  13   4  12   2
 -0.0039228387227125  13   4  12   8
  0.0212334810790782  13   4  13   4
 -0.0066445999543355  13   5   4   2
 -0.0083297432656364  13   5   6   1
 -0.0053990816884605  13   5   6   5
  0.0096744864830924  13   5   8   4
  0.0016041220010922  13   5   9   6
 -0.0018821514598650  13   5  11   2
 -0.0068661901860234  13   5  11   8
 -0.0000813954230127  13   5  12   6
 -0.0033030914506014  13   5  13   1
  0.0049967032657799  13   5  13   5
 -0.0665478883923486  13   6   1   1
 -0.0622936724121068  13   6   2   2
 -0.0777744593392182  13   6   3   3
 -0.0849017332500889  13   6   4   4
 -0.0198312979136068  13   6   5   1
 -0.1131732831052421  13   6   5   5
 -0.1082314299552125  13   6   6   6
 -0.0965025998315447  13   6   7   7
  0.0023960056090262  13   6   8   2
 -0.1280990539364405  13   6   8   8
  0.0006063003674044  13   6   9   1
  0.0301776591165393  13   6   9   5
 -0.0508671776487007  13   6   9   9
  0.0343628263951876  13   6  10   3
 -0.0516235394639275  13   6  10  10
  0.0505974471305142  13   6  11   4
 -0.0464878250170812  13   6  11  11
 -0.0380703231263360  13   6  12   1
  0.0123332270858774  13   6  12   5
  0.0057339620442836  13   6  12   9
 -0.0468624046304478  13   6  12  12
  0.0386529402742506  13   6  13   6
 -0.0030496090926313  13   7   4   3
 -0.0059034323007275  13   7   7   6
  0.0037888276489043  13   7  10   4
  0.0049377772679404  13   7  11   3
  0.0006135694791578  13   7  11  10
  0.0039736312378036  13   7  13   7
  0.0098138941387455  13   8   4   1
  0.0142470224386719  13   8   5   4
  0.0067501561886183  13   8   6   2
 -0.0165346390857548  13   8   8   6
 -0.0034720880807416  13   8   9   4
 -0.0060137398674510  13   8  11   1
 -0.0106617768145684  13   8  11   5
  0.0033177870984241  13   8  11   9
  0.0033404852671348  13   8  12   4
 -0.0019948717142583  13   8  12  11
 -0.0019106385839349  13   8  13   2
  0.0065505451971834  13   8  13   8
 -0.0010897194217518  13   9   4   2
 -0.0007395014190660  13   9   6   1
  0.0034846267372664  13   9   6   5
 -0.0034667198015595  13   9   8   4
  0.0014144858539234  13   9   9   6
 -0.0023104330092475  13   9  11   2
  0.0016127495109221  13   9  11   8
  0.0006745498107440  13   9  12   6
 -0.0032611305868587  13   9  13   1
  0.0013344692217069  13   9  13   5
  0.0048812341640187  13   9  13   9
  0.0056746681102205  13  10   6   3
  0.0056592131892512  13  10   7   4
  0.0013674436047599  13  10  10   6
  0.0000232668439154  13  10  11   7
  0.0025831467177978  13  10  13   3
  0.0068729586479897  13  10  13  10
  0.0916514676354848  13  11   2   1
 -0.0332851519581455  13  11   5   2
  0.0871288228390437  13  11   6   4
  0.0724391929248378  13  11   7   3
 -0.0053504531706786  13  11   8   1
 -0.0658650453529270  13  11   8   5
 -0.0140688403478233  13  11   9   2
 -0.0097912684368712  13  11   9   8
  0.0033787279675677  13  11  10   7
 -0.0277924978723371  13  11  11   6
  0.0202815757089347  13  11  12   2
  0.0175502819409939  13  11  12   8
  0.0051472925800917  13  11  13   4
  0.0721975031254475  13  11  13  11
 -0.0241006990880677  13  12   4   2
 -0.0278382961550097  13  12   6   1
  0.0026939116941091  13  12   6   5
  0.0094396257847333  13  12   8   4
 -0.0004563952520107  13  12   9   6
 -0.0058740619443070  13  12  11   2
 -0.0029778921111677  13  12  11   8
 -0.0062454189999798  13  12  12   6
 -0.0114047989775414  13  12  13   1
  0.0077464089297747  13  12  13   5
  0.0054040264768545  13  12  13   9
  0.0301863267098295  13  12  13  12
  0.3661328341764140  13  13   1   1
  0.3648241779224204  13  13   2   2
  0.3617825843462177  13  13   3   3
  0.3818824486477842  13  13   4   4
  0.0095109995308212  13  13   5   1
  0.3877279233690099  13  13   5   5
  0.3954758343344819  13  13   6   6
  0.3773254245354568  13  13   7   7
 -0.0009416250105279  13  13   8   2
  0.3968198870157518  13  13   8   8
 -0.0009507926965676  13  13   9   1
 -0.0176487996012948  13  13   9   5
  0.3452473820036669  13  13   9   9
 -0.0254990250665931  13  13  10   3
  0.3379833297336162  13  13  10  10
 -0.0259736020219036  13  13  11   4
  0.3504410614530003  13  13  11  11
  0.0271241421869226  13  13  12   1
 -0.0103856466136848  13  13  12   5
 -0.0075604421357981  13  13  12   9
  0.3400695485923761  13  13  12  12
 -0.0174029037972496  13  13  13   6
  0.3344118868577272  13  13  13  13
  0.0018037579777402  14   1   3   2
 -0.0003975224551462  14   1   7   1
 -0.0040675257075920  14   1   7   5
  0.0031121783970702  14   1   8   3
  0.0009448191661313  14   1   9   7
  0.0105159965694967  14   1  10   2
 -0.0039643730106322  14   1  10   8
 -0.0090057186910616  14   1  12   7
  0.0114555826183637  14   1  14   1
  0.0080853405980022  14   2   3   1
 -0.0011850957725476  14   2   5   3
  0.0049861247516497  14   2   7   2
 -0.0006766956829423  14   2   8   7
  0.0085441846066685  14   2   9   3
  0.0128446155142276  14   2  10   1
 -0.0053533884914539  14   2  10   5
  0.0021727984889076  14   2  10   9
 -0.0119711140552951  14   2  12   3
 -0.0135707006271494  14   2  12  10
  0.0153042060467822  14   2  14   2
 -0.0095126451955574  14   3   2   1
 -0.0013326222239248  14   3   5   2
 -0.0210781379398301  14   3   6   4
 -0.0256886475721834  14   3   7   3
  0.0066030007679097  14   3   8   1
  0.0313108993521890  14   3   8   5
 -0.0034859086811720  14   3   9   2
 -0.0080683301563147  14   3   9   8
  0.0203127130726752  14   3  10   7
  0.0217803105011109  14   3  11   6
 -0.0233326152096248  14   3  12   2
 -0.0038284819186293  14   3  12   8
  0.0144456454982214  14   3  13   4
  0.0013141805578211  14   3  13  11
  0.0214168069744141  14   3  14   3
 -0.0024784900889545  14   4   6   3
 -0.0025258231540744  14   4   7   4
  0.0031624253383029  14   4  10   6
  0.0041480349679896  14   4  11   7
  0.0034369667410434  14   4  13   3
  0.0024950169557026  14   4  13  10
  0.0034033356877522  14   4  14   4
 -0.0066919606266656  14   5   3   2
 -0.0083278682948554  14   5   7   1
 -0.0053966847012574  14   5   7   5
  0.0095718799823814  14   5   8   3
 -0.0026114614392502  14   5   9   7
 -0.0039930843801592  14   5  10   2
 -0.0073382337167529  14   5  10   8
  0.0003498732360569  14   5  12   7
 -0.0033097025564544  14   5  14   1
  0.0049902146496779  14   5  14   5
 -0.0030251583657563  14   6   4   3
 -0.0058750988129409  14   6   7   6
  0.0037877805294686  14   6  10   4
  0.0049348496481364  14   6  11   3
  0.0006294297271859  14   6  11  10
  0.0039712541224616  14   6  13   7
  0.0039689116928051  14   6  14   6
 -0.0664029996763833  14   7   1   1
 -0.0621543836682997  14   7   2   2
 -0.0835799048801332  14   7   3   3
 -0.0785562436489459  14   7   4   4
 -0.0198049506929289  14   7   5   1
 -0.1129758279149806  14   7   5   5
 -0.0962632565340109  14   7   6   6
 -0.1080913897243831  14   7   7   7
  0.0023926495900091  14   7   8   2
 -0.1278798341678455  14   7   8   8
 -0.0002251019767972  14   7   9   1
  0.0285461455550341  14   7   9   5
 -0.0496517820101281  14   7   9   9
  0.0418956628890514  14   7  10   3
 -0.0505557226214191  14   7  10  10
  0.0406674525067616  14   7  11   4
 -0.0468602943069488  14   7  11  11
 -0.0379140631934737  14   7  12   1
  0.0124726760910445  14   7  12   5
  0.0032467847385397  14   7  12   9
 -0.0462600777379345  14   7  12  12
  0.0306512560968745  14   7  13   6
 -0.0225267636873410  14   7  13  13
  0.0385347152803176  14   7  14   7
  0.0096958764561314  14   8   3   1
  0.0140482069707087  14   8   5   3
  0.0067275713632307  14   8   7   2
 -0.0165103675173792  14   8   8   7
  0.0020898167793153  14   8   9   3
 -0.0064888203913644  14   8  10   1
 -0.0141054794264785  14   8  10   5
  0.0008060780859190  14   8  10   9
  0.0027426612082238  14   8  12   3
 -0.0012082457912888  14   8  12  10
 -0.0019106566498448  14   8  14   2
  0.0065319229958656  14   8  14   8
  0.0001021853514795  14   9   3   2
 -0.0001271856804972  14   9   7   1
  0.0017093868798473  14   9   7   5
 -0.0022884113402200  14   9   8   3
  0.0029360740323148  14   9   9   7
 -0.0007423498810998  14   9  10   2
 -0.0003269069284013  14   9  10   8
 -0.0019991479928989  14   9  12   7
  0.0003531960362503  14   9  14   1
  0.0006253533791642  14   9  14   5
  0.0054188665651817  14   9  14   9
  0.0743129171557564  14  10   2   1
 -0.0276385636697663  14  10   5   2
  0.0558105994769299  14  10   6   4
  0.0671554151143508  14  10   7   3
 -0.0043603667969047  14  10   8   1
 -0.0500672980082865  14  10   8   5
 -0.0091996964631122  14  10   9   2
 -0.0119881774683190  14  10   9   8
  0.0083582022588676  14  10  10   7
 -0.0167195938408509  14  10  11   6
  0.0091845363776365  14  10  12   2
  0.0124889509556916  14  10  12   8
  0.0038045919978290  14  10  13   4
  0.0455154722644582  14  10  13  11
  0.0095589161197717  14  10  14   3
  0.0530776790587553  14  10  14  10
  0.0073231031538305  14  11   6   3
  0.0073140355537458  14  11   7   4
  0.0010472468668142  14  11  10   6
 -0.0009066342398574  14  11  11   7
  0.0023611198067622  14  11  13   3
  0.0075697868698311  14  11  13  10
  0.0022632290758577  14  11  14   4
  0.0088256333015717  14  11  14  11
 -0.0244106282638614  14  12   3   2
 -0.0278650219061406  14  12   7   1
  0.0028603212622219  14  12   7   5
  0.0092477870551822  14  12   8   3
 -0.0124652150084947  14  12   9   7
 -0.0184500341614478  14  12  10   2
 -0.0063179182834951  14  12  10   8