 &FCI NORB=  26,NELEC=  10,MS2=   0,
  ORBSYM=1,5,3,2,1,6,7,5,1,3,2,1,6,7,5,1,4,5,3,2,8,5,1,6,7,5,
  ISYM=   1,
  ITGENERAL=1,
 &END
  0.5360290297010877   1   1   1   1
  0.2013569429168216   2   1   2   1
  0.5322048460102965   2   2   1   1
  0.5456961249947285   2   2   2   2
  0.0846200335667438   3   1   3   1
  0.0383991247434855   3   2   3   2
  0.5415997990762530   3   3   1   1
  0.5099337118989707   3   3   2   2
  0.6224033934192451   3   3   3   3
  0.0849987933768311   4   1   4   1
  0.0393206429642877   4   2   4   2
  0.0261418692968837   4   3   4   3
  0.5427263727595264   4   4   1   1
  0.5116183975214396   4   4   2   2
  0.5704382602904347   4   4   3   3
  0.6230841689455708   4   4   4   4
  0.0285474995379084   5   1   1   1
 -0.0059412676890561   5   1   2   2
  0.0830834741529344   5   1   3   3
  0.0823166078958176   5   1   4   4
  0.0751738610119991   5   1   5   1
 -0.0898810525261620   5   2   2   1
  0.0513089751991423   5   2   5   2
  0.0435096421453545   5   3   3   1
  0.0541450601157384   5   3   5   3
  0.0428432479665359   5   4   4   1
  0.0536040993075991   5   4   5   4
  0.6047612895221014   5   5   1   1
  0.5567561996533611   5   5   2   2
  0.6741148333974598   5   5   3   3
  0.6744978295453407   5   5   4   4
  0.1420219610498547   5   5   5   1
  0.9137471678730831   5   5   5   5
  0.0485201744249786   6   1   4   2
  0.0608346109455655   6   1   6   1
  0.0732396981015728   6   2   4   1
  0.0217973574046546   6   2   5   4
  0.0737981317523195   6   2   6   2
  0.0182656931841102   6   3   6   3
  0.1579153977946323   6   4   2   1
 -0.0521245583545092   6   4   5   2
  0.1810550139589213   6   4   6   4
  0.0005272911827952   6   5   4   2
  0.0036319559415320   6   5   6   1
  0.0187156671904078   6   5   6   5
  0.5849638166329179   6   6   1   1
  0.5675965672255796   6   6   2   2
  0.5977199116344476   6   6   3   3
  0.6470404730356745   6   6   4   4
  0.0633626397734763   6   6   5   1
  0.7006741370233189   6   6   5   5
  0.7144318105120931   6   6   6   6
  0.0455288679650658   7   1   3   2
  0.0562029228443655   7   1   7   1
  0.0691081145042969   7   2   3   1
  0.0233888315529417   7   2   5   3
  0.0650425216260983   7   2   7   2
  0.1537831320564613   7   3   2   1
 -0.0487036500491234   7   3   5   2
  0.1439954474622922   7   3   6   4
  0.1827610295000804   7   3   7   3
  0.0187935764439685   7   4   6   3
  0.0194201792588117   7   4   7   4
  0.0040606637227275   7   5   3   2
  0.0098551023982741   7   5   7   1
  0.0208934613182956   7   5   7   5
  0.0244924261589660   7   6   4   3
  0.0301943602084258   7   6   7   6
  0.5959024323063010   7   7   1   1
  0.5727128932073356   7   7   2   2
  0.6681898627275334   7   7   3   3
  0.6189793391493820   7   7   4   4
  0.0768510340782920   7   7   5   1
  0.7326110100296387   7   7   5   5
  0.6771160080602268   7   7   6   6
  0.7652863354718913   7   7   7   7
  0.0082933882372286   8   1   2   1
 -0.0219929724272642   8   1   5   2
 -0.0251365054000858   8   1   6   4
 -0.0268657686764553   8   1   7   3
  0.0334816885808498   8   1   8   1
  0.0111490538790574   8   2   1   1
  0.0310820726545954   8   2   2   2
 -0.0221145298886759   8   2   3   3
 -0.0228191029636175   8   2   4   4
 -0.0371981670649224   8   2   5   1
 -0.0186859602353786   8   2   5   5
 -0.0086305679085471   8   2   6   6
 -0.0129293378085621   8   2   7   7
  0.0332168810166149   8   2   8   2
 -0.0206450339958730   8   3   3   2
 -0.0298003985632954   8   3   7   1
 -0.0240316395882408   8   3   7   5
  0.0347238869986955   8   3   8   3
 -0.0223534372116685   8   4   4   2
 -0.0307580546705802   8   4   6   1
 -0.0216113136736301   8   4   6   5
  0.0371800716149740   8   4   8   4
 -0.1322302669032837   8   5   2   1
  0.0445928087437216   8   5   5   2
 -0.1425593729342911   8   5   6   4
 -0.1447727418165350   8   5   7   3
  0.0264023337751828   8   5   8   1
  0.1839615955892394   8   5   8   5
 -0.0536995583278599   8   6   4   1
 -0.0479490760061104   8   6   5   4
 -0.0382136140958917   8   6   6   2
  0.0585072965904481   8   6   8   6
 -0.0561972975204245   8   7   3   1
 -0.0511383338741257   8   7   5   3
 -0.0399689315293641   8   7   7   2
  0.0647617395197203   8   7   8   7
  0.6278618319646018   8   8   1   1
  0.5913213929909418   8   8   2   2
  0.6882026643063672   8   8   3   3
  0.6912420897490854   8   8   4   4
  0.1187056942421839   8   8   5   1
  0.8887080369399855   8   8   5   5
  0.7482470598504882   8   8   6   6
  0.7807948702180482   8   8   7   7
 -0.0088249653767082   8   8   8   2
  0.9299864243837547   8   8   8   8
 -0.0016887215185677   9   1   1   1
 -0.0123156757479730   9   1   2   2
  0.0108303856366902   9   1   3   3
  0.0312401000317689   9   1   4   4
  0.0134547111231134   9   1   5   1
 -0.0162590551138789   9   1   5   5
  0.0229042631389475   9   1   6   6
  0.0058438110727140   9   1   7   7
 -0.0191498629091492   9   1   8   2
 -0.0067054403496711   9   1   8   8
  0.0346561685992219   9   1   9   1
 -0.0328603009807631   9   2   2   1
  0.0260931854569265   9   2   5   2
  0.0023944450254184   9   2   6   4
 -0.0077260292784685   9   2   7   3
 -0.0183868829405524   9   2   8   1
  0.0117439933260327   9   2   8   5
  0.0314779585892569   9   2   9   2
  0.0080804747270792   9   3   3   1
 -0.0047074909463822   9   3   5   3
  0.0070451993133585   9   3   7   2
  0.0003409106164015   9   3   8   7
  0.0132121080808223   9   3   9   3
  0.0567553654156361   9   4   4   1
  0.0227924248181759   9   4   5   4
  0.0461958478108244   9   4   6   2
 -0.0331496468254314   9   4   8   6
  0.0554379599079532   9   4   9   4
 -0.0483859552330267   9   5   1   1
 -0.0234246190052437   9   5   2   2
 -0.0915948121902566   9   5   3   3
 -0.0803101333947005   9   5   4   4
 -0.0657883092288398   9   5   5   1
 -0.1846006373669266   9   5   5   5
 -0.0815369788698141   9   5   6   6
 -0.1008721682981931   9   5   7   7
  0.0199603375697681   9   5   8   2
 -0.1609100083641529   9   5   8   8
  0.0029572280868724   9   5   9   1
  0.0885040389486906   9   5   9   5
  0.0248864816165527   9   6   4   2
  0.0302738091812827   9   6   6   1
  0.0022269362910115   9   6   6   5
 -0.0170825136463424   9   6   8   4
  0.0244999370587659   9   6   9   6
  0.0038663154484451   9   7   3   2
  0.0037732662356019   9   7   7   1
 -0.0029401741973613   9   7   7   5
  0.0005031865957798   9   7   8   3
  0.0056526224587743   9   7   9   7
 -0.0310469884775179   9   8   2   1
  0.0182468447701990   9   8   5   2
 -0.0153229557836787   9   8   6   4
 -0.0027863580184790   9   8   7   3
 -0.0126994485437687   9   8   8   1
 -0.0200052359165104   9   8   8   5
  0.0073751431494199   9   8   9   2
  0.0285371179534628   9   8   9   8
  0.4862562118094925   9   9   1   1
  0.4701818651558821   9   9   2   2
  0.4947770044646147   9   9   3   3
  0.5199595463770051   9   9   4   4
  0.0491931679374464   9   9   5   1
  0.5904724589454756   9   9   5   5
  0.5324514222297708   9   9   6   6
  0.5236899274858390   9   9   7   7
 -0.0038495262219269   9   9   8   2
  0.5843076779729290   9   9   8   8
  0.0016787524581409   9   9   9   1
 -0.0593679901608184   9   9   9   5
  0.4869043810163506   9   9   9   9
  0.0058016616219747  10   1   3   1
 -0.0272045149649480  10   1   5   3
  0.0153596665640237  10   1   7   2
  0.0161028361886969  10   1   8   7
  0.0049616814975817  10   1   9   3
  0.0351960630150653  10   1  10   1
  0.0255558820561834  10   2   3   2
  0.0252856673557012  10   2   7   1
 -0.0091072071689876  10   2   7   5
 -0.0004507455656907  10   2   8   3
  0.0010305930718726  10   2   9   7
  0.0324351989710645  10   2  10   2
 -0.0556074848335638  10   3   1   1
 -0.0267224584179973  10   3   2   2
 -0.1090348015019832  10   3   3   3
 -0.0930906085805426  10   3   4   4
 -0.0656819006071860  10   3   5   1
 -0.1614206243228880  10   3   5   5
 -0.0849471043755236  10   3   6   6
 -0.1069725559378929  10   3   7   7
  0.0243756135374333  10   3   8   2
 -0.1457029663098779  10   3   8   8
 -0.0039898836754946  10   3   9   1
  0.0603204378600408  10   3   9   5
 -0.0638506962210612  10   3   9   9
  0.0801773433267316  10   3  10   3
 -0.0075196806189749  10   4   4   3
 -0.0040818433064438  10   4   7   6
  0.0108316659111856  10   4  10   4
 -0.0712596890920895  10   5   3   1
 -0.0569121741484684  10   5   5   3
 -0.0503145382957737  10   5   7   2
  0.0565051809665638  10   5   8   7
  0.0060183865438279  10   5   9   3
  0.0091056683189967  10   5  10   1
  0.0824769584138281  10   5  10   5
  0.0003611182407568  10   6   6   3
 -0.0002930944861193  10   6   7   4
  0.0055553216063516  10   6  10   6
  0.0304633485300424  10   7   2   1
 -0.0229235063145864  10   7   5   2
  0.0052796406613804  10   7   6   4
 -0.0005516239011412  10   7   7   3
  0.0180041047079895  10   7   8   1
  0.0134070732948145  10   7   8   5
 -0.0106680519963864  10   7   9   2
 -0.0164407861137848  10   7   9   8
  0.0263586423397263  10   7  10   7
  0.0165421620322964  10   8   3   2
  0.0230586934919764  10   8   7   1
  0.0145809125105850  10   8   7   5
 -0.0216019335835407  10   8   8   3
 -0.0036343268308234  10   8   9   7
  0.0057900581898062  10   8  10   2
  0.0195609122555110  10   8  10   8
  0.0091418661872810  10   9   3   1
  0.0211200045489465  10   9   5   3
  0.0021667572870664  10   9   7   2
 -0.0168929798730570  10   9   8   7
 -0.0029180585051591  10   9   9   3
 -0.0163473010474631  10   9  10   1
 -0.0165758703305243  10   9  10   5
  0.0163270040635149  10   9  10   9
  0.5044041503858953  10  10   1   1
  0.4837128658937708  10  10   2   2
  0.5541801721283508  10  10   3   3
  0.5142259546061118  10  10   4   4
  0.0600994991499059  10  10   5   1
  0.6182211981909960  10  10   5   5
  0.5321004679980147  10  10   6   6
  0.5774075409576818  10  10   7   7
 -0.0079905597834170  10  10   8   2
  0.6080903231344398  10  10   8   8
 -0.0072584823735544  10  10   9   1
 -0.0731951893734667  10  10   9   5
  0.4705490805896283  10  10   9   9
 -0.0841218771358101  10  10  10   3
  0.5302655414523140  10  10  10  10
  0.0007864167304446  11   1   4   1
 -0.0254734894888477  11   1   5   4
  0.0109399863413106  11   1   6   2
  0.0162884921320496  11   1   8   6
  0.0039250696498158  11   1   9   4
  0.0277354836956969  11   1  11   1
  0.0170231869491413  11   2   4   2
  0.0182350205545461  11   2   6   1
 -0.0099957180386227  11   2   6   5
  0.0014717768577580  11   2   8   4
  0.0064794102208227  11   2   9   6
  0.0210945378292931  11   2  11   2
 -0.0074871078177773  11   3   4   3
 -0.0062351275305568  11   3   7   6
  0.0100484954732964  11   3  10   4
  0.0100184950397693  11   3  11   3
 -0.0760567741438383  11   4   1   1
 -0.0505660960082095  11   4   2   2
 -0.1100269554703169  11   4   3   3
 -0.1245538706027755  11   4   4   4
 -0.0626410090125391  11   4   5   1
 -0.1830674076688362  11   4   5   5
 -0.1217577069147020  11   4   6   6
 -0.1238699565185511  11   4   7   7
  0.0202393408308472  11   4   8   2
 -0.1762905306242366  11   4   8   8
 -0.0043511823106321  11   4   9   1
  0.0549481375616974  11   4   9   5
 -0.0767424947770224  11   4   9   9
  0.0589670450074975  11   4  10   3
 -0.0858330584687643  11   4  10  10
  0.0828896429165442  11   4  11   4
 -0.0645629148801110  11   5   4   1
 -0.0543266983477170  11   5   5   4
 -0.0467217419493395  11   5   6   2
  0.0515625024280299  11   5   8   6
 -0.0306392764782825  11   5   9   4
  0.0129194025429798  11   5  11   1
  0.0714469460560482  11   5  11   5
  0.0123366857663646  11   6   2   1
 -0.0166031702194387  11   6   5   2
 -0.0189209044356372  11   6   6   4
 -0.0160054494642167  11   6   7   3
  0.0191046551943586  11   6   8   1
  0.0323331369692290  11   6   8   5
 -0.0097199836877818  11   6   9   2
 -0.0141969965305804  11   6   9   8
  0.0168388640523722  11   6  10   7
  0.0311855098696917  11   6  11   6
 -0.0041413525999851  11   7   6   3
 -0.0048287059078074  11   7   7   4
  0.0045983107057138  11   7  10   6
  0.0051496300171002  11   7  11   7
  0.0156227840935548  11   8   4   2
  0.0224130251202810  11   8   6   1
  0.0150997933170905  11   8   6   5
 -0.0253172216418522  11   8   8   4
  0.0066508756197765  11   8   9   6
 -0.0003127388335231  11   8  11   2
  0.0220160148924251  11   8  11   8
  0.0074224450448774  11   9   4   1
  0.0073327584241801  11   9   5   4
  0.0039088178960466  11   9   6   2
 -0.0074189023604908  11   9   8   6
  0.0053154835257941  11   9   9   4
 -0.0004718982355167  11   9  11   1
 -0.0080304107238375  11   9  11   5
  0.0109011128473955  11   9  11   9
  0.0186599931943956  11  10   4   3
  0.0146717723343918  11  10   7   6
 -0.0050377963190517  11  10  10   4
 -0.0044938994947980  11  10  11   3
  0.0187167595753468  11  10  11  10
  0.4730987391454570  11  11   1   1
  0.4506849940159743  11  11   2   2
  0.4884887526658546  11  11   3   3
  0.5259920404583859  11  11   4   4
  0.0611976183760987  11  11   5   1
  0.5839175978386576  11  11   5   5
  0.5328969541698764  11  11   6   6
  0.5164431074985143  11  11   7   7
 -0.0135535290248449  11  11   8   2
  0.5782941126444179  11  11   8   8
  0.0124654638252393  11  11   9   1
 -0.0637693770264281  11  11   9   5
  0.4612137320451891  11  11   9   9
 -0.0691172956863820  11  11  10   3
  0.4597915955991204  11  11  10  10
 -0.0878332597010613  11  11  11   4
  0.4755131746706474  11  11  11  11
  0.0976908225655777  12   1   1   1
  0.1040232563747949  12   1   2   2
  0.0903337137392627  12   1   3   3
  0.0891704694074342  12   1   4   4
 -0.0000721482493373  12   1   5   1
  0.1204491487459654  12   1   5   5
  0.1220936534990696  12   1   6   6
  0.1287702139650090  12   1   7   7
  0.0182304969951919  12   1   8   2
  0.1443131939546875  12   1   8   8
 -0.0070675730458515  12   1   9   1
 -0.0197358518200379  12   1   9   5
  0.0610452246276005  12   1   9   9
 -0.0164172816614015  12   1  10   3
  0.0707984150798115  12   1  10  10
 -0.0290156452216172  12   1  11   4
  0.0579060589463674  12   1  11  11
  0.0598496809950693  12   1  12   1
  0.0812681266946843  12   2   2   1
 -0.0365565370415088  12   2   5   2
  0.0708763451276331  12   2   6   4
  0.0718957890228354  12   2   7   3
  0.0091505185935861  12   2   8   1
 -0.0728641829333043  12   2   8   5
 -0.0064332685282022  12   2   9   2
 -0.0047658100588398  12   2   9   8
  0.0059135856699447  12   2  10   7
 -0.0090756747538955  12   2  11   6
  0.0687358599969192  12   2  12   2
  0.0059501660205453  12   3   3   1
  0.0021418013944135  12   3   5   3
  0.0124089277048111  12   3   7   2
 -0.0050004087883879  12   3   8   7
 -0.0051452307128576  12   3   9   3
 -0.0012795784148470  12   3  10   1
 -0.0054197181077093  12   3  10   5
  0.0010368283324823  12   3  10   9
  0.0152520292159181  12   3  12   3
  0.0018396019249906  12   4   4   1
 -0.0005123943131581  12   4   5   4
  0.0090504650355630  12   4   6   2
 -0.0013299352910515  12   4   8   6
 -0.0073799065387744  12   4   9   4
 -0.0057903911492978  12   4  11   1
 -0.0011567648037489  12   4  11   5
 -0.0031204072247612  12   4  11   9
  0.0154623909581493  12   4  12   4
 -0.0429746172155094  12   5   1   1
 -0.0511559467280161  12   5   2   2
 -0.0308006170930868  12   5   3   3
 -0.0323233342105465  12   5   4   4
  0.0133536760675258  12   5   5   1
 -0.0343966536735141  12   5   5   5
 -0.0469541098625507  12   5   6   6
 -0.0460838878218016  12   5   7   7
 -0.0179771965609641  12   5   8   2
 -0.0512763749870252  12   5   8   8
  0.0016154747358251  12   5   9   1
 -0.0029243240251953  12   5   9   5
 -0.0233408302077754  12   5   9   9
 -0.0030504312774837  12   5  10   3
 -0.0239770080485011  12   5  10  10
  0.0030020719335082  12   5  11   4
 -0.0193299594793436  12   5  11  11
 -0.0292038829896784  12   5  12   1
  0.0204904818847238  12   5  12   5
  0.0185999261063372  12   6   4   2
  0.0250219876580984  12   6   6   1
 -0.0006955065504359  12   6   6   5
 -0.0083920417647848  12   6   8   4
  0.0092527961973002  12   6   9   6
  0.0016119913892584  12   6  11   2
  0.0094439267930275  12   6  11   8
  0.0198204890557899  12   6  12   6
  0.0208641579726049  12   7   3   2
  0.0275040408119210  12   7   7   1
  0.0017068631394057  12   7   7   5
 -0.0100538071463243  12   7   8   3
  0.0004299755320689  12   7   9   7
  0.0095225515415286  12   7  10   2
  0.0110128566745906  12   7  10   8
  0.0208579521316008  12   7  12   7
  0.0545144893157870  12   8   2   1
 -0.0321859746895278  12   8   5   2
  0.0345369395219997  12   8   6   4
  0.0323367323423492  12   8   7   3
  0.0166240361908919  12   8   8   1
 -0.0382314315542123  12   8   8   5
 -0.0118595526614290  12   8   9   2
 -0.0075902969295255  12   8   9   8
  0.0114005759015551  12   8  10   7
  0.0053671398383750  12   8  11   6
  0.0340403913438408  12   8  12   2
  0.0285849581191123  12   8  12   8
 -0.0253900600378167  12   9   1   1
 -0.0189641776222395  12   9   2   2
 -0.0345118209147335  12   9   3   3
 -0.0365001956206519  12   9   4   4
 -0.0113144130065448  12   9   5   1
 -0.0384293202363116  12   9   5   5
 -0.0288641757493278  12   9   6   6
 -0.0322512797654686  12   9   7   7
  0.0026615402472146  12   9   8   2
 -0.0375414980425079  12   9   8   8
 -0.0106279773262287  12   9   9   1
  0.0093003994048509  12   9   9   5
 -0.0249946573717668  12   9   9   9
  0.0111928381150066  12   9  10   3
 -0.0258358788425222  12   9  10  10
  0.0090213247901104  12   9  11   4
 -0.0274722361782085  12   9  11  11
 -0.0086678829270518  12   9  12   1
  0.0072140601256077  12   9  12   5
  0.0171664309228005  12   9  12   9
 -0.0103739558592923  12  10   3   1
 -0.0071652517721475  12  10   5   3
 -0.0041054911634328  12  10   7   2
  0.0094670946351199  12  10   8   7
 -0.0019773038832433  12  10   9   3
 -0.0017797520968714  12  10  10   1
  0.0100192634486116  12  10  10   5
 -0.0019482866375802  12  10  10   9
  0.0087648886494912  12  10  12   3
  0.0119723918463777  12  10  12  10
 -0.0242983501305203  12  11   4   1
 -0.0091993187198195  12  11   5   4
 -0.0189579213935707  12  11   6   2
  0.0144613715240184  12  11   8   6
 -0.0186455634811246  12  11   9   4
 -0.0083439522857323  12  11  11   1
  0.0176279352001248  12  11  11   5
 -0.0051618131404796  12  11  11   9
  0.0092402593556684  12  11  12   4
  0.0190843298807197  12  11  12  11
  0.4549093388963922  12  12   1   1
  0.4634681755808992  12  12   2   2
  0.4417530383799882  12  12   3   3
  0.4430637776777211  12  12   4   4
 -0.0023093041904241  12  12   5   1
  0.4793609267146208  12  12   5   5
  0.4821953687818885  12  12   6   6
  0.4877749397884283  12  12   7   7
  0.0245928554839840  12  12   8   2
  0.5079732314208465  12  12   8   8
 -0.0082241205925102  12  12   9   1
 -0.0197795429643138  12  12   9   5
  0.4123893858285814  12  12   9   9
 -0.0222184830402828  12  12  10   3
  0.4188080407394827  12  12  10  10
 -0.0385639883745027  12  12  11   4
  0.3982055991605906  12  12  11  11
  0.0742499138500631  12  12  12   1
 -0.0380748548011283  12  12  12   5
 -0.0130464885795741  12  12  12   9
  0.4149033932108895  12  12  12  12
  0.0014555842341099  13   1   4   2
 -0.0009277071788560  13   1   6   1
 -0.0042240920530370  13   1   6   5
  0.0031954005286717  13   1   8   4
  0.0007047868505210  13   1   9   6
  0.0102918532939228  13   1  11   2
 -0.0046536213864367  13   1  11   8
 -0.0090888516765584  13   1  12   6
  0.0112219407291213  13   1  13   1
  0.0078046247114460  13   2   4   1
 -0.0014532100098788  13   2   5   4
  0.0047693700498502  13   2   6   2
 -0.0009527691522253  13   2   8   6
  0.0083244904867845  13   2   9   4
  0.0125780102184218  13   2  11   1
 -0.0055846369189397  13   2  11   5
  0.0020086975267511  13   2  11   9
 -0.0120602422549122  13   2  12   4
 -0.0134897122255487  13   2  12  11
  0.0152027454855949  13   2  13   2
 -0.0023651381483195  13   3   6   3
 -0.0027601756217970  13   3   7   4
  0.0022299796504170  13   3  10   6
  0.0030342291330539  13   3  11   7
  0.0034686111914250  13   3  13   3
 -0.0099290893556975  13   4   2   1
 -0.0008787805823895  13   4   5   2
 -0.0260136804626389  13   4   6   4
 -0.0226285149756237  13   4   7   3
  0.0068734386078214  13   4   8   1
  0.0319213314843727  13   4   8   5
 -0.0037228634432011  13   4   9   2
 -0.0080261034414807  13   4   9   8
  0.0079138138550531  13   4  10   7
  0.0201451804439100  13   4  11   6
 -0.0234008320226078  13   4  12   2
 -0.0037562777361280  13   4  12   8
  0.0214913532839121  13   4  13   4
 -0.0067414859134147  13   5   4   2
 -0.0085007657564527  13   5   6   1
 -0.0051175946851464  13   5   6   5
  0.0097309896601847  13   5   8   4
 -0.0027093271338948  13   5   9   6
 -0.0042821403548178  13   5  11   2
 -0.0070422540554035  13   5  11   8
  0.0005728740318167  13   5  12   6
 -0.0034231688102910  13   5  13   1
  0.0052053534400250  13   5  13   5
 -0.0682215379969383  13   6   1   1
 -0.0627904060255178  13   6   2   2
 -0.0778169310218006  13   6   3   3
 -0.0842316695185930  13   6   4   4
 -0.0211444889942263  13   6   5   1
 -0.1125892818496106  13   6   5   5
 -0.1088048837618525  13   6   6   6
 -0.1044647212594060  13   6   7   7
  0.0010069211623406  13   6   8   2
 -0.1303253612905452  13   6   8   8
  0.0001620661251162  13   6   9   1
  0.0287216585149513  13   6   9   5
 -0.0501396635038542  13   6   9   9
  0.0263964952729434  13   6  10   3
 -0.0567098458468796  13   6  10  10
  0.0418742601475971  13   6  11   4
 -0.0510202850997557  13   6  11  11
 -0.0377779918421510  13   6  12   1
  0.0132268534707696  13   6  12   5
  0.0031675072652661  13   6  12   9
 -0.0465516946650972  13   6  12  12
  0.0389565492949349  13   6  13   6
 -0.0037716804203070  13   7   4   3
 -0.0072096545602739  13   7   7   6
  0.0025562206617938  13   7  10   4
  0.0036853098068237  13   7  11   3
 -0.0004974616078835  13   7  11  10
  0.0038849874781583  13   7  13   7
  0.0089846293313003  13   8   4   1
  0.0138221841792561  13   8   5   4
  0.0056052861549534  13   8   6   2
 -0.0163257520098265  13   8   8   6
  0.0013940695813200  13   8   9   4
 -0.0076092902877085  13   8  11   1
 -0.0133002061406087  13   8  11   5
  0.0006592328029703  13   8  11   9
  0.0031096151591343  13   8  12   4
 -0.0003843057310324  13   8  12  11
 -0.0026089702893072  13   8  13   2
  0.0067285105012890  13   8  13   8
 -0.0001927908603355  13   9   4   2
 -0.0004260807791110  13   9   6   1
  0.0017072466306622  13   9   6   5
 -0.0021618023520162  13   9   8   4
  0.0027487493382369  13   9   9   6
 -0.0009124682050704  13   9  11   2
 -0.0003760791933953  13   9  11   8
 -0.0021325373913456  13   9  12   6
  0.0003110932794167  13   9  13   1
  0.0006898846051179  13   9  13   5
  0.0054431751102886  13   9  13   9
  0.0040200623790929  13  10   6   3
  0.0038711801946354  13  10   7   4
  0.0016886974206133  13  10  10   6
  0.0007026819746421  13  10  11   7
  0.0024063870675934  13  10  13   3
  0.0047596869857523  13  10  13  10
  0.0730761724409647  13  11   2   1
 -0.0296377780334524  13  11   5   2
  0.0666756639430604  13  11   6   4
  0.0539261665264922  13  11   7   3
 -0.0060634689054239  13  11   8   1
 -0.0493208578950885  13  11   8   5
 -0.0089584897023485  13  11   9   2
 -0.0108191302178319  13  11   9   8
  0.0096946072919225  13  11  10   7
  0.0087935353980370  13  11  11   6
  0.0091812977197454  13  11  12   2
  0.0143116293394942  13  11  12   8
  0.0094317165239948  13  11  13   4
  0.0526066877832144  13  11  13  11
 -0.0244153959583598  13  12   4   2
 -0.0278487537925997  13  12   6   1
  0.0035458716816468  13  12   6   5
  0.0096689464109338  13  12   8   4
 -0.0127621458712085  13  12   9   6
 -0.0185647951066871  13  12  11   2
 -0.0055545892459118  13  12  11   8
 -0.0046340882889950  13  12  12   6
 -0.0114466716571492  13  12  13   1
  0.0081370185456731  13  12  13   5
  0.0020578333057272  13  12  13   9
  0.0308864448299627  13  12  13  12
  0.3670036480054286  13  13   1   1
  0.3651505925308896  13  13   2   2
  0.3615980252534354  13  13   3   3
  0.3815929108674662  13  13   4   4
  0.0101087506902125  13  13   5   1
  0.3875153010215476  13  13   5   5
  0.3957867383366513  13  13   6   6
  0.3815882943108170  13  13   7   7
 -0.0003125469756064  13  13   8   2
  0.3982171805056297  13  13   8   8
  0.0072240693278665  13  13   9   1
 -0.0167756692169835  13  13   9   5
  0.3557696670355422  13  13   9   9
 -0.0181341856194064  13  13  10   3
  0.3485899043516096  13  13  10  10
 -0.0186357540120095  13  13  11   4
  0.3618789828756647  13  13  11  11
  0.0260026562712816  13  13  12   1
 -0.0110313290721006  13  13  12   5
 -0.0107845064335499  13  13  12   9
  0.3409316193711719  13  13  12  12
 -0.0176181677727377  13  13  13   6
  0.3345349682328422  13  13  13  13
  0.0053041003651601  14   1   3   2
  0.0022058393058888  14   1   7   1
 -0.0037513863997008  14   1   7   5
  0.0015054343386004  14   1   8   3
  0.0013858453463844  14   1   9   7
  0.0119160700638253  14   1  10   2
 -0.0019473943413683  14   1  10   8
 -0.0060188638430732  14   1  12   7
  0.0117398648928087  14   1  14   1
  0.0135540534708288  14   2   3   1
 -0.0001752041949279  14   2   5   3
  0.0084962528228146  14   2   7   2
 -0.0033476297715788  14   2   8   7
  0.0037038487553151  14   2   9   3
  0.0130793547867896  14   2  10   1
 -0.0101367398969265  14   2  10   5
 -0.0041317739116657  14   2  10   9
 -0.0105187091993786  14   2  12   3
 -0.0114343119210028  14   2  12  10
  0.0167059431386161  14   2  14   2
  0.0020169269892018  14   3   2   1
 -0.0052166001383948  14   3   5   2
 -0.0108506184329077  14   3   6   4
 -0.0154575411592370  14   3   7   3
  0.0057760922236711  14   3   8   1
  0.0220136617843453  14   3   8   5
 -0.0051266295510004  14   3   9   2
 -0.0097423602549193  14   3   9   8
  0.0129509977446344  14   3  10   7
  0.0132807381117961  14   3  11   6
 -0.0179573110829901  14   3  12   2
 -0.0011028029523642  14   3  12   8
  0.0131758189821281  14   3  13   4
  0.0083803143075897  14   3  13  11
  0.0190990396772315  14   3  14   3
 -0.0012036126026547  14   4   6   3
 -0.0015805995511443  14   4   7   4
  0.0023814251048259  14   4  10   6
  0.0028667100977086  14   4  11   7
  0.0033305257211403  14   4  13   3
  0.0026637256479951  14   4  13  10
  0.0032705603038566  14   4  14   4
 -0.0073684653737491  14   5   3   2
 -0.0085532749678770  14   5   7   1
 -0.0051444841073728  14   5   7   5
  0.0084210431553038  14   5   8   3
  0.0012602161483279  14   5   9   7
 -0.0062363979186047  14   5  10   2
 -0.0060335642103645  14   5  10   8
 -0.0008569032501708  14   5  12   7
 -0.0044330303719776  14   5  14   1
  0.0049719892930576  14   5  14   5
 -0.0014251664258710  14   6   4   3
 -0.0043931168670794  14   6   7   6
  0.0026332845604743  14   6  10   4
  0.0035694510788709  14   6  11   3
  0.0013811021547040  14   6  11  10
  0.0034735879984473  14   6  13   7
  0.0034040675047442  14   6  14   6
 -0.0571451366110544  14   7   1   1
 -0.0522394968508392  14   7   2   2
 -0.0705369265974483  14   7   3   3
 -0.0664803503127560  14   7   4   4
 -0.0190890990637181  14   7   5   1
 -0.0980374572803015  14   7   5   5
 -0.0828028959726362  14   7   6   6
 -0.1008219486734061  14   7   7   7
  0.0009982703925549  14   7   8   2
 -0.1132504559013217  14   7   8   8
  0.0018492412735800  14   7   9   1
  0.0272662745659835  14   7   9   5
 -0.0435477752420056  14   7   9   9
  0.0283238369658016  14   7  10   3
 -0.0474704390894423  14   7  10  10
  0.0303005031135102  14   7  11   4
 -0.0443165765614466  14   7  11  11
 -0.0320922115864257  14   7  12   1
  0.0105620350354122  14   7  12   5
  0.0041917656850047  14   7  12   9
 -0.0396234030420955  14   7  12  12
  0.0270298417452495  14   7  13   6
 -0.0193755215641306  14   7  13  13
  0.0299509094292088  14   7  14   7
  0.0071077062689891  14   8   3   1
  0.0113842244235326  14   8   5   3
  0.0047705079163956  14   8   7   2
 -0.0144168129609915  14   8   8   7
 -0.0035886395188516  14   8   9   3
 -0.0055005372492703  14   8  10   1
 -0.0109228593874579  14   8  10   5
  0.0036208037676800  14   8  10   9
  0.0031598895353469  14   8  12   3
 -0.0003974752142204  14   8  12  10
 -0.0018938119630753  14   8  14   2
  0.0049458299985270  14   8  14   8
 -0.0015074892409650  14   9   3   2
 -0.0001931123862192  14   9   7   1
  0.0033421702236379  14   9   7   5
 -0.0033360613741273  14   9   8   3
  0.0009894014179252  14   9   9   7
 -0.0057998392394967  14   9  10   2
  0.0006680302823763  14   9  10   8
  0.0001454704625567  14   9  12   7
 -0.0037186660387004  14   9  14   1
  0.0019594142615934  14   9  14   5
  0.0053881903651045  14   9  14   9
  0.0616970041429481  14  10   2   1
 -0.0263978558962435  14  10   5   2
  0.0433172343626921  14  10   6   4
  0.0498599680199830  14  10   7   3
 -0.0029225295930467  14  10   8   1
 -0.0368566341188741  14  10   8   5
 -0.0138415872933232  14  10   9   2
 -0.0085671446103809  14  10   9   8
  0.0126981673540713  14  10  10   7
  0.0079287984533752  14  10  11   6
  0.0048385282885615  14  10  12   2
  0.0110353308269116  14  10  12   8
  0.0058630712439359  14  10  13   4
  0.0332012635053469  14  10  13  11
  0.0148098933310590  14  10  14   3
  0.0393970992337421  14  10  14  10
  0.0056201139828360  14  11   6   3
  0.0054447669729287  14  11   7   4
  0.0023378033949970  14  11  10   6
  0.0009014504604531  14  11  11   7
  0.0027896014404668  14  11  13   3
  0.0057774589947682  14  11  13  10
  0.0031505922800171  14  11  14   4
  0.0071821472545276  14  11  14  11
 -0.0222666848681290  14  12   3   2
 -0.0231220618613309  14  12   7   1
  0.0010600280000285  14  12   7   5
  0.0082235074196441  14  12   8   3
 -0.0017751385594838  14  12   9   7
 -0.0212899457682111  14  12  10   2
 -0.0063934821556979  14  12  10   8