 &FCI NORB=  16,NELEC=  10,MS2=   0,
  ORBSYM=1,5,1,3,2,6,7,5,1,3,2,1,6,7,5,5,
  ISYM=   1,
 &END
  0.8097759297673155   1   1   1   1
  0.0543003091379033   2   1   2   1
  0.5173786988098745   2   2   1   1
  0.5316389906842985   2   2   2   2
 -0.1339474674730772   3   1   1   1
 -0.0080356006061062   3   1   2   2
  0.0585649927342827   3   1   3   1
  0.0876924119052607   3   2   2   1
  0.2077368525362242   3   2   3   2
  0.5512052157420189   3   3   1   1
  0.5371887843968790   3   3   2   2
 -0.0286164816523147   3   3   3   1
  0.5586219406085866   3   3   3   3
  0.0923786786171818   4   1   4   1
  0.0488557603157638   4   2   4   2
  0.0179344431325656   4   3   4   1
  0.0278384431848807   4   3   4   3
  0.6143441817788846   4   4   1   1
  0.4955571363113818   4   4   2   2
 -0.0516943435673146   4   4   3   1
  0.4994257807347079   4   4   3   3
  0.5597884179621325   4   4   4   4
  0.0923786786171819   5   1   5   1
  0.0488557603157638   5   2   5   2
  0.0179344431325656   5   3   5   1
  0.0278384431848807   5   3   5   3
  0.0216647825022720   5   4   5   4
  0.6143441817788848   5   5   1   1
  0.4955571363113820   5   5   2   2
 -0.0516943435673147   5   5   3   1
  0.4994257807347082   5   5   3   3
  0.5164588529575888   5   5   4   4
  0.5597884179621329   5   5   5   5
  0.0421688153987122   6   1   5   2
  0.0471958091557754   6   1   6   1
  0.0687583436697247   6   2   5   1
  0.0384546932003852   6   2   5   3
  0.0792752031155173   6   2   6   2
  0.0366662741242399   6   3   5   2
  0.0226541139864534   6   3   6   1
  0.0356231362043470   6   3   6   3
  0.0182102370272319   6   4   6   4
  0.0961748440410438   6   5   2   1
  0.1536827431564327   6   5   3   2
  0.1928988070883674   6   5   6   5
  0.6356952984229154   6   6   1   1
  0.5433531843492628   6   6   2   2
 -0.0455747682245699   6   6   3   1
  0.5463809866716175   6   6   3   3
  0.5461769571674125   6   6   4   4
  0.5896042002281450   6   6   5   5
  0.6459349963727231   6   6   6   6
  0.0421688153987122   7   1   4   2
  0.0471958091557755   7   1   7   1
  0.0687583436697247   7   2   4   1
  0.0384546932003852   7   2   4   3
  0.0792752031155173   7   2   7   2
  0.0366662741242399   7   3   4   2
  0.0226541139864534   7   3   7   1
  0.0356231362043469   7   3   7   3
  0.0961748440410439   7   4   2   1
  0.1536827431564328   7   4   3   2
  0.1564783330339037   7   4   6   5
  0.1928988070883676   7   4   7   4
  0.0182102370272319   7   5   6   4
  0.0182102370272319   7   5   7   5
  0.0217136215303661   7   6   5   4
  0.0258609739292123   7   6   7   6
  0.6356952984229164   7   7   1   1
  0.5433531843492633   7   7   2   2
 -0.0455747682245701   7   7   3   1
  0.5463809866716183   7   7   3   3
  0.5896042002281455   7   7   4   4
  0.5461769571674135   7   7   5   5
  0.5942130485142995   7   7   6   6
  0.6459349963727252   7   7   7   7
  0.0637955844001150   8   1   2   1
  0.0612007068501001   8   1   3   2
  0.1159107447964869   8   1   6   5
  0.1159107447964870   8   1   7   4
  0.1342631466507741   8   1   8   1
  0.0679177162081349   8   2   1   1
 -0.0220591024903860   8   2   2   2
 -0.0278206471371032   8   2   3   1
 -0.0273948628571477   8   2   3   3
  0.0319261041280677   8   2   4   4
  0.0319261041280677   8   2   5   5
  0.0227832948628892   8   2   6   6
  0.0227832948628893   8   2   7   7
  0.0424505327426246   8   2   8   2
 -0.0567756255124691   8   3   2   1
 -0.1196879095281395   8   3   3   2
 -0.1022898998739957   8   3   6   5
 -0.1022898998739958   8   3   7   4
 -0.0795241005803440   8   3   8   1
  0.1011109309673315   8   3   8   3
  0.0209589351669331   8   4   4   2
  0.0334226163299992   8   4   7   1
  0.0022543855526730   8   4   7   3
  0.0316261074516289   8   4   8   4
  0.0209589351669331   8   5   5   2
  0.0334226163299991   8   5   6   1
  0.0022543855526730   8   5   6   3
  0.0316261074516289   8   5   8   5
  0.0572324407932806   8   6   5   1
  0.0007293897199417   8   6   5   3
  0.0338117576002178   8   6   6   2
  0.0474755688180428   8   6   8   6
  0.0572324407932806   8   7   4   1
  0.0007293897199417   8   7   4   3
  0.0338117576002179   8   7   7   2
  0.0474755688180429   8   7   8   7
  0.7856345838991710   8   8   1   1
  0.5637078438745251   8   8   2   2
 -0.1150573003069671   8   8   3   1
  0.6009195634915153   8   8   3   3
  0.6201815034239482   8   8   4   4
  0.6201815034239484   8   8   5   5
  0.6688502365456467   8   8   6   6
  0.6688502365456479   8   8   7   7
  0.0390748337403521   8   8   8   2
  0.8292512770978514   8   8   8   8
  0.0827029289267094   9   1   1   1
  0.0240072299923749   9   1   2   2
 -0.0349687093772929   9   1   3   1
  0.0412688577311860   9   1   3   3
  0.0316637755271638   9   1   4   4
  0.0316637755271638   9   1   5   5
  0.0410707454468739   9   1   6   6
  0.0410707454468741   9   1   7   7
  0.0071729263364069   9   1   8   2
  0.0890101051483314   9   1   8   8
  0.0341767105326732   9   1   9   1
 -0.0004416744475081   9   2   2   1
  0.0067762896046521   9   2   3   2
 -0.0035929495177600   9   2   6   5
 -0.0035929495177600   9   2   7   4
 -0.0032828552230401   9   2   8   1
 -0.0015442317346103   9   2   8   3
  0.0124639100004320   9   2   9   2
 -0.1147148006504171   9   3   1   1
 -0.0471058193471291   9   3   2   2
  0.0319434395403742   9   3   3   1
 -0.0560212028384100   9   3   3   3
 -0.0720543827466479   9   3   4   4
 -0.0720543827466479   9   3   5   5
 -0.0792141319117682   9   3   6   6
 -0.0792141319117684   9   3   7   7
 -0.0143613859985245   9   3   8   2
 -0.1179745208012751   9   3   8   8
 -0.0193014867503705   9   3   9   1
  0.0384240936003279   9   3   9   3
 -0.0203219594563616   9   4   4   1
 -0.0091741719813314   9   4   4   3
 -0.0166955104301278   9   4   7   2
 -0.0075174189961870   9   4   8   7
  0.0170082456287146   9   4   9   4
 -0.0203219594563616   9   5   5   1
 -0.0091741719813314   9   5   5   3
 -0.0166955104301278   9   5   6   2
 -0.0075174189961870   9   5   8   6
  0.0170082456287146   9   5   9   5
 -0.0042535545384752   9   6   5   2
 -0.0012344576880114   9   6   6   1
 -0.0051090404594508   9   6   6   3
  0.0013320584171756   9   6   8   5
  0.0044431068870831   9   6   9   6
 -0.0042535545384752   9   7   4   2
 -0.0012344576880114   9   7   7   1
 -0.0051090404594509   9   7   7   3
  0.0013320584171756   9   7   8   4
  0.0044431068870831   9   7   9   7
  0.0185018156597691   9   8   2   1
  0.0195215296011323   9   8   3   2
  0.0374413304337743   9   8   6   5
  0.0374413304337743   9   8   7   4
  0.0529688004370821   9   8   8   1
 -0.0397137642584682   9   8   8   3
 -0.0057674261497582   9   8   9   2
  0.0328718741940154   9   8   9   8
  0.4511142180936529   9   9   1   1
  0.3842089630985575   9   9   2   2
 -0.0331036293984041   9   9   3   1
  0.3954258234802462   9   9   3   3
  0.4019446205905503   9   9   4   4
  0.4019446205905504   9   9   5   5
  0.4100702087201995   9   9   6   6
  0.4100702087201999   9   9   7   7
  0.0102195527032377   9   9   8   2
  0.4538042404853372   9   9   8   8
  0.0195300282026064   9   9   9   1
 -0.0315429262194548   9   9   9   3
  0.3579938593172103   9   9   9   9
  0.0281935645209652  10   1   4   1
  0.0008291381614774  10   1   4   3
  0.0209956322712510  10   1   7   2
  0.0229733422743589  10   1   8   7
  0.0037662488700593  10   1   9   4
  0.0200884885755891  10   1  10   1
  0.0167806373615952  10   2   4   2
  0.0173214770914427  10   2   7   1
  0.0124533578975575  10   2   7   3
  0.0087304048896890  10   2   8   4
 -0.0016328049790679  10   2   9   7
  0.0152216182046629  10   2  10   2
 -0.0066805145163186  10   3   4   1
  0.0061431548506416  10   3   4   3
  0.0054433283922204  10   3   7   2
 -0.0080045589108677  10   3   8   7
  0.0011014408468262  10   3   9   4
  0.0023023836722217  10   3  10   1
  0.0112217255922095  10   3  10   3
  0.1392790409276865  10   4   1   1
  0.0952842193161950  10   4   2   2
 -0.0256986747496428  10   4   3   1
  0.1021738856953629  10   4   3   3
  0.1049993986443394  10   4   4   4
  0.0983750381442495  10   4   5   5
  0.1223841402645896  10   4   6   6
  0.1374535272558624  10   4   7   7
  0.0073362396304506  10   4   8   2
  0.1617601126510381  10   4   8   8
  0.0288962897320245  10   4   9   1
 -0.0318023598417081  10   4   9   3
  0.0430042253702984  10   4   9   9
  0.0720476337200676  10   4  10   4
  0.0033121802500449  10   5   5   4
  0.0075346934956361  10   5   7   6
  0.0080617307834550  10   5  10   5
  0.0092730534599997  10   6   6   4
  0.0092730534599997  10   6   7   5
  0.0083554384281822  10   6  10   6
  0.0530500902303064  10   7   2   1
  0.0788780936396407  10   7   3   2
  0.0919797852688423  10   7   6   5
  0.1105258921888421  10   7   7   4
  0.0773391732577558  10   7   8   1
 -0.0660887746221873  10   7   8   3
 -0.0067268694841600  10   7   9   2
  0.0352216164016398  10   7   9   8
  0.0839250024160258  10   7  10   7
  0.0100017955154308  10   8   4   2
  0.0201053801507770  10   8   7   1
 -0.0018649503824750  10   8   7   3
  0.0203388605661889  10   8   8   4
  0.0041624547374039  10   8   9   7
  0.0063618134653942  10   8  10   2
  0.0162419849485007  10   8  10   8
  0.0277909583170137  10   9   4   1
  0.0020553696670067  10   9   4   3
  0.0138000674887028  10   9   7   2
  0.0182465605181116  10   9   8   7
 -0.0148910631210162  10   9   9   4
  0.0011402937684234  10   9  10   1
 -0.0073238674688436  10   9  10   3
  0.0227721920380706  10   9  10   9
  0.4919793863529746  10  10   1   1
  0.4179841891587043  10  10   2   2
 -0.0329469572253989  10  10   3   1
  0.4209382138170639  10  10   3   3
  0.4623680152313199  10  10   4   4
  0.4321321884910296  10  10   5   5
  0.4550311369029621  10  10   6   6
  0.4842331884256339  10  10   7   7
  0.0194974272078047  10  10   8   2
  0.5053600462041210  10  10   8   8
  0.0202699233215027  10  10   9   1
 -0.0534314520080765  10  10   9   3
  0.3578053467115765  10  10   9   9
  0.0655901871132527  10  10  10   4
  0.4150259380567701  10  10  10  10
  0.0281935645209652  11   1   5   1
  0.0008291381614774  11   1   5   3
  0.0209956322712509  11   1   6   2
  0.0229733422743588  11   1   8   6
  0.0037662488700593  11   1   9   5
  0.0200884885755891  11   1  11   1
  0.0167806373615952  11   2   5   2
  0.0173214770914427  11   2   6   1
  0.0124533578975575  11   2   6   3
  0.0087304048896890  11   2   8   5
 -0.0016328049790679  11   2   9   6
  0.0152216182046629  11   2  11   2
 -0.0066805145163186  11   3   5   1
  0.0061431548506416  11   3   5   3
  0.0054433283922204  11   3   6   2
 -0.0080045589108677  11   3   8   6
  0.0011014408468262  11   3   9   5
  0.0023023836722217  11   3  11   1
  0.0112217255922095  11   3  11   3
  0.0033121802500449  11   4   5   4
  0.0075346934956361  11   4   7   6
  0.0080617307834550  11   4  10   5
  0.0080617307834550  11   4  11   4
  0.1392790409276867  11   5   1   1
  0.0952842193161951  11   5   2   2
 -0.0256986747496428  11   5   3   1
  0.1021738856953631  11   5   3   3
  0.0983750381442497  11   5   4   4
  0.1049993986443396  11   5   5   5
  0.1374535272558621  11   5   6   6
  0.1223841402645902  11   5   7   7
  0.0073362396304506  11   5   8   2
  0.1617601126510384  11   5   8   8
  0.0288962897320245  11   5   9   1
 -0.0318023598417081  11   5   9   3
  0.0430042253702986  11   5   9   9
  0.0559241721531577  11   5  10   4
  0.0676381134608148  11   5  10  10
  0.0720476337200678  11   5  11   5
  0.0530500902303062  11   6   2   1
  0.0788780936396403  11   6   3   2
  0.1105258921888415  11   6   6   5
  0.0919797852688420  11   6   7   4
  0.0773391732577555  11   6   8   1
 -0.0660887746221872  11   6   8   3
 -0.0067268694841600  11   6   9   2
  0.0352216164016397  11   6   9   8
  0.0672141255596609  11   6  10   7
  0.0839250024160254  11   6  11   6
  0.0092730534599998  11   7   6   4
  0.0092730534599998  11   7   7   5
  0.0083554384281823  11   7  10   6
  0.0083554384281823  11   7  11   7
  0.0100017955154308  11   8   5   2
  0.0201053801507769  11   8   6   1
 -0.0018649503824750  11   8   6   3
  0.0203388605661889  11   8   8   5
  0.0041624547374039  11   8   9   6
  0.0063618134653942  11   8  11   2
  0.0162419849485007  11   8  11   8
  0.0277909583170138  11   9   5   1
  0.0020553696670067  11   9   5   3
  0.0138000674887028  11   9   6   2
  0.0182465605181116  11   9   8   6
 -0.0148910631210162  11   9   9   5
  0.0011402937684234  11   9  11   1
 -0.0073238674688436  11   9  11   3
  0.0227721920380706  11   9  11   9
  0.0151179133701452  11  10   5   4
  0.0146010257613356  11  10   7   6
 -0.0010239631737810  11  10  10   5
 -0.0010239631737810  11  10  11   4
  0.0168474047806305  11  10  11  10
  0.4919793863529747  11  11   1   1
  0.4179841891587045  11  11   2   2
 -0.0329469572253989  11  11   3   1
  0.4209382138170642  11  11   3   3
  0.4321321884910297  11  11   4   4
  0.4623680152313204  11  11   5   5
  0.4842331884256337  11  11   6   6
  0.4550311369029629  11  11   7   7
  0.0194974272078047  11  11   8   2
  0.5053600462041212  11  11   8   8
  0.0202699233215027  11  11   9   1
 -0.0534314520080766  11  11   9   3
  0.3578053467115767  11  11   9   9
  0.0676381134608147  11  11  10   4
  0.3813311284955097  11  11  10  10
  0.0655901871132530  11  11  11   5
  0.4150259380567706  11  11  11  11
  0.0728119404371903  12   1   1   1
  0.0491573679751534  12   1   2   2
 -0.0153283996654739  12   1   3   1
  0.0544745810422581  12   1   3   3
  0.0490574195416795  12   1   4   4
  0.0490574195416795  12   1   5   5
  0.0649056076231714  12   1   6   6
  0.0649056076231716  12   1   7   7
  0.0028003604892955  12   1   8   2
  0.0843127102198291  12   1   8   8
  0.0190747146893407  12   1   9   1
 -0.0173951367345661  12   1   9   3
  0.0196973877231408  12   1   9   9
  0.0340240872695144  12   1  10   4
  0.0320374032975376  12   1  10  10
  0.0340240872695144  12   1  11   5
  0.0320374032975376  12   1  11  11
  0.0199956596283890  12   1  12   1
  0.0400742591898587  12   2   2   1
  0.0824009051843506  12   2   3   2
  0.0749705339131336  12   2   6   5
  0.0749705339131337  12   2   7   4
  0.0428792422143241  12   2   8   1
 -0.0613102815584059  12   2   8   3
 -0.0108377796125945  12   2   9   2
  0.0260969863803842  12   2   9   8
  0.0577253532217492  12   2  10   7
  0.0577253532217491  12   2  11   6
  0.0614788611001947  12   2  12   2
  0.0620092223608223  12   3   1   1
  0.0948103626849313  12   3   2   2
  0.0054903080807893  12   3   3   1
  0.0979620991033299  12   3   3   3
  0.0673910430766359  12   3   4   4
  0.0673910430766359  12   3   5   5
  0.0920569142075749  12   3   6   6
  0.0920569142075751  12   3   7   7
 -0.0222816410443686  12   3   8   2
  0.0959283211082876  12   3   8   8
  0.0058351598830121  12   3   9   1
 -0.0221583810055791  12   3   9   3
  0.0259896450813620  12   3   9   9
  0.0396782590549471  12   3  10   4
  0.0474994827018015  12   3  10  10
  0.0396782590549472  12   3  11   5
  0.0474994827018015  12   3  11  11
  0.0210502012060395  12   3  12   1
  0.0541974300412556  12   3  12   3
 -0.0001667766406181  12   4   4   1
  0.0028955582209693  12   4   4   3
  0.0093268335265744  12   4   7   2
  0.0012135661581898  12   4   8   7
  0.0090384090243956  12   4   9   4
  0.0133952192416981  12   4  10   1
  0.0120694270931406  12   4  10   3
 -0.0113350434381659  12   4  10   9
  0.0213485141713553  12   4  12   4
 -0.0001667766406181  12   5   5   1
  0.0028955582209693  12   5   5   3
  0.0093268335265743  12   5   6   2
  0.0012135661581897  12   5   8   6
  0.0090384090243956  12   5   9   5
  0.0133952192416981  12   5  11   1
  0.0120694270931406  12   5  11   3
 -0.0113350434381659  12   5  11   9
  0.0213485141713553  12   5  12   5
  0.0212505723868882  12   6   5   2
  0.0202337668150052  12   6   6   1
  0.0169421237997279  12   6   6   3
  0.0088575641726458  12   6   8   5
 -0.0018171146269848  12   6   9   6
  0.0176625488831424  12   6  11   2
  0.0066062006749481  12   6  11   8
  0.0210321652672521  12   6  12   6
  0.0212505723868883  12   7   4   2
  0.0202337668150053  12   7   7   1
  0.0169421237997280  12   7   7   3
  0.0088575641726458  12   7   8   4
 -0.0018171146269848  12   7   9   7
  0.0176625488831424  12   7  10   2
  0.0066062006749481  12   7  10   8
  0.0210321652672522  12   7  12   7
 -0.0078099486376201  12   8   2   1
 -0.0395428738919397  12   8   3   2
 -0.0145977026158279  12   8   6   5
 -0.0145977026158279  12   8   7   4
  0.0076154056735019  12   8   8   1
  0.0218619021382498  12   8   8   3
  0.0045814768610559  12   8   9   2
 -0.0013743195848765  12   8   9   8
 -0.0070736335301200  12   8  10   7
 -0.0070736335301199  12   8  11   6
 -0.0199845421915485  12   8  12   2
  0.0181014769954918  12   8  12   8
  0.0558512529085776  12   9   1   1
 -0.0039202555107690  12   9   2   2
 -0.0174362018693222  12   9   3   1
 -0.0068001463450574  12   9   3   3
  0.0348223941519035  12   9   4   4
  0.0348223941519035  12   9   5   5
  0.0211304722534379  12   9   6   6
  0.0211304722534379  12   9   7   7
  0.0242990657165074  12   9   8   2
  0.0323411223668417  12   9   8   8
 -0.0047766787241441  12   9   9   1
 -0.0188080392030474  12   9   9   3
  0.0163284173329292  12   9   9   9
 -0.0050249148906532  12   9  10   4
  0.0295065687316565  12   9  10  10
 -0.0050249148906532  12   9  11   5
  0.0295065687316565  12   9  11  11
 -0.0041351546271471  12   9  12   1
 -0.0077571699487871  12   9  12   3
  0.0356649450925156  12   9  12   9
  0.0541499461416768  12  10   4   1
  0.0272861219689955  12  10   4   3
  0.0544797025305626  12  10   7   2
  0.0258240166053484  12  10   8   7
 -0.0212643477166600  12  10   9   4
  0.0067075036009853  12  10  10   1
 -0.0048696648982992  12  10  10   3
  0.0231039327324121  12  10  10   9
 -0.0087341818980195  12  10  12   4
  0.0562043486782033  12  10  12  10
  0.0541499461416769  12  11   5   1
  0.0272861219689955  12  11   5   3
  0.0544797025305627  12  11   6   2
  0.0258240166053484  12  11   8   6
 -0.0212643477166600  12  11   9   5
  0.0067075036009853  12  11  11   1
 -0.0048696648982992  12  11  11   3
  0.0231039327324121  12  11  11   9
 -0.0087341818980195  12  11  12   5
  0.0562043486782033  12  11  12  11
  0.4597511777387980  12  12   1   1
  0.4439878366185696  12  12   2   2
 -0.0137999630876595  12  12   3   1
  0.4485433155450170  12  12   3   3
  0.4367244866902847  12  12   4   4
  0.4367244866902849  12  12   5   5
  0.4637625086301993  12  12   6   6
  0.4637625086301997  12  12   7   7
 -0.0068594708528239  12  12   8   2
  0.4859332303622076  12  12   8   8
  0.0142141437765407  12  12   9   1
 -0.0412396835258413  12  12   9   3
  0.3593425972540681  12  12   9   9
  0.0628538526641388  12  12  10   4
  0.3858342493186948  12  12  10  10
  0.0628538526641389  12  12  11   5
  0.3858342493186950  12  12  11  11
  0.0306986344865305  12  12  12   1
  0.0620892789648461  12  12  12   3
  0.0099676045835108  12  12  12   9
  0.3975021078318821  12  12  12  12
 -0.0073468566057630  13   1   5   2
 -0.0135131604603632  13   1   6   1
 -0.0006891215141081  13   1   6   3
 -0.0119900835843420  13   1   8   5
 -0.0014345346111293  13   1   9   6
 -0.0085701953435858  13   1  11   2
 -0.0096509320587480  13   1  11   8
 -0.0092994714123236  13   1  12   6
  0.0080730357973093  13   1  13   1
 -0.0002908458128495  13   2   5   1
  0.0052094466573167  13   2   5   3
  0.0012356938337626  13   2   6   2
 -0.0037066751018418  13   2   8   6
 -0.0029126458566519  13   2   9   5
 -0.0092888819315288  13   2  11   1
 -0.0087545193901490  13   2  11   3
  0.0030626538997734  13   2  11   9
 -0.0140044749932706  13   2  12   5
  0.0098519894188557  13   2  12  11
  0.0149116145454024  13   2  13   2
  0.0064554011365974  13   3   5   2
  0.0051038314030490  13   3   6   1
  0.0032622612127399  13   3   6   3
  0.0041728780855789  13   3   8   5
  0.0026106454394535  13   3   9   6
 -0.0065813476112759  13   3  11   2
  0.0025772099954027  13   3  11   8
 -0.0066884015980757  13   3  12   6
  0.0028686375917304  13   3  13   1
  0.0113399233619487  13   3  13   3
 -0.0028539695397691  13   4   6   4
 -0.0028539695397691  13   4   7   5
 -0.0050909339308319  13   4  10   6
 -0.0050909339308319  13   4  11   7
  0.0045115757185099  13   4  13   4
 -0.0144514134341391  13   5   2   1
 -0.0101338557152824  13   5   3   2
 -0.0335659371361993  13   5   6   5
 -0.0278579980566611  13   5   7   4
 -0.0348699150383455  13   5   8   1
  0.0220745744553123  13   5   8   3
  0.0073023945554886  13   5   9   2
 -0.0205299018329235  13   5   9   8
 -0.0301937294495210  13   5  10   7
 -0.0403755973111850  13   5  11   6
 -0.0271644060665322  13   5  12   2
 -0.0006601872246819  13   5  12   8
  0.0296827079944711  13   5  13   5
 -0.1185731231786923  13   6   1   1
 -0.0711816566259461  13   6   2   2
  0.0239195351902329  13   6   3   1
 -0.0761282249377358  13   6   3   3
 -0.0829093840013058  13   6   4   4
 -0.0895416287564197  13   6   5   5
 -0.1128094857466550  13   6   6   6
 -0.1008570269738050  13   6   7   7
 -0.0106133965978708  13   6   8   2
 -0.1358329564777531  13   6   8   8
 -0.0209522284388248  13   6   9   1
  0.0308241046131047  13   6   9   3
 -0.0373747383926489  13   6   9   9
 -0.0454630150726875  13   6  10   4
 -0.0596603716882849  13   6  10  10
 -0.0570102235206546  13   6  11   5
 -0.0616842365407369  13   6  11  11
 -0.0263129493048104  13   6  12   1
 -0.0321413663331533  13   6  12   3
 -0.0042805184790590  13   6  12   9
 -0.0520148197476040  13   6  12  12
  0.0503031797882153  13   6  13   6
 -0.0033161223775569  13   7   5   4
 -0.0059762293864252  13   7   7   6
 -0.0057736042239835  13   7  10   5
 -0.0057736042239835  13   7  11   4
 -0.0010119324262260  13   7  11  10
  0.0052068841033050  13   7  13   7
 -0.0219230414790101  13   8   5   1
  0.0007787886946051  13   8   5   3
 -0.0131938639897078  13   8   6   2
 -0.0197127850609558  13   8   8   6
 -0.0014546267252196  13   8   9   5
 -0.0122836008863949  13   8  11   1
  0.0030153629688858  13   8  11   3
 -0.0045472503355653  13   8  11   9
 -0.0036728150749330  13   8  12   5
 -0.0075031443131634  13   8  12  11
  0.0024114800735498  13   8  13   2
  0.0103218175632167  13   8  13   8
  0.0040972337146352  13   9   5   2
 -0.0011659012045811  13   9   6   1
  0.0069188669498436  13   9   6   3
 -0.0049758949893254  13   9   8   5
  0.0016276281525599  13   9   9   6
 -0.0013354292372461  13   9  11   2
 -0.0025726591249867  13   9  11   8
 -0.0003316944407798  13   9  12   6
  0.0025381400748212  13   9  13   1
  0.0047082332999776  13   9  13   3
  0.0095649926124739  13   9  13   9
 -0.0085586731340034  13  10   6   4
 -0.0085586731340034  13  10   7   5
 -0.0026971949265985  13  10  10   6
 -0.0026971949265986  13  10  11   7
 -0.0012585348999505  13  10  13   4
  0.0084358724803879  13  10  13  10
 -0.0535804889310011  13  11   2   1
 -0.0932273241664830  13  11   3   2
 -0.1060692556454157  13  11   6   5
 -0.0889519093774088  13  11   7   4
 -0.0609595330092142  13  11   8   1
  0.0590834141088400  13  11   8   3
 -0.0040968876855284  13  11   9   2
 -0.0179765113928334  13  11   9   8
 -0.0462464779571819  13  11  10   7
 -0.0516408678103788  13  11  11   6
 -0.0315873391000133  13  11  12   2
  0.0091010348117179  13  11  12   8
  0.0045512770061235  13  11  13   5
  0.0791328440013551  13  11  13  11
 -0.0283860019594115  13  12   5   2
 -0.0219868413699820  13  12   6   1
 -0.0219787052350239  13  12   6   3
 -0.0100390768202908  13  12   8   5
  0.0012051564255546  13  12   9   6
 -0.0025941037640050  13  12  11   2
 -0.0038271011085118  13  12  11   8
 -0.0056391250012736  13  12  12   6
 -0.0001260356458603  13  12  13   1
 -0.0116209654035234  13  12  13   3
 -0.0074453293626315  13  12  13   9
  0.0283069083743599  13  12  13  12
  0.3968219280223804  13  13   1   1
  0.3713043330231922  13  13   2   2
 -0.0136036362983576  13  13   3   1
  0.3725849901562733  13  13   3   3
  0.3660287092903612  13  13   4   4
  0.3873708247167683  13  13   5   5
  0.4041320329903890  13  13   6   6
  0.3832603589388036  13  13   7   7
  0.0059493395929030  13  13   8   2
  0.4089872036754481  13  13   8   8
  0.0136285650044728  13  13   9   1
 -0.0251362947770247  13  13   9   3
  0.3226466851625010  13  13   9   9
  0.0425356449172269  13  13  10   4
  0.3308804448659428  13  13  10  10
  0.0379567429374572  13  13  11   5
  0.3564135337199569  13  13  11  11
  0.0193990631861148  13  13  12   1
  0.0273106304665138  13  13  12   3
  0.0074800378057958  13  13  12   9
  0.3440224813710989  13  13  12  12
 -0.0292630383706171  13  13  13   6
  0.3376045961516105  13  13  13  13
 -0.0073468566057628  14   1   4   2
 -0.0135131604603630  14   1   7   1
 -0.0006891215141080  14   1   7   3
 -0.0119900835843418  14   1   8   4
 -0.0014345346111293  14   1   9   7
 -0.0085701953435857  14   1  10   2
 -0.0096509320587480  14   1  10   8
 -0.0092994714123235  14   1  12   7
  0.0080730357973092  14   1  14   1
 -0.0002908458128492  14   2   4   1
  0.0052094466573168  14   2   4   3
  0.0012356938337629  14   2   7   2
 -0.0037066751018417  14   2   8   7
 -0.0029126458566520  14   2   9   4
 -0.0092888819315287  14   2  10   1
 -0.0087545193901490  14   2  10   3
  0.0030626538997735  14   2  10   9
 -0.0140044749932705  14   2  12   4
  0.0098519894188559  14   2  12  10
  0.0149116145454024  14   2  14   2
  0.0064554011365975  14   3   4   2
  0.0051038314030491  14   3   7   1
  0.0032622612127400  14   3   7   3
  0.0041728780855789  14   3   8   4
  0.0026106454394535  14   3   9   7
 -0.0065813476112759  14   3  10   2
  0.0025772099954027  14   3  10   8
 -0.0066884015980756  14   3  12   7
  0.0028686375917305  14   3  14   1
  0.0113399233619488  14   3  14   3
 -0.0144514134341387  14   4   2   1
 -0.0101338557152818  14   4   3   2
 -0.0278579980566604  14   4   6   5
 -0.0335659371361986  14   4   7   4
 -0.0348699150383450  14   4   8   1
  0.0220745744553119  14   4   8   3
  0.0073023945554886  14   4   9   2
 -0.0205299018329233  14   4   9   8
 -0.0403755973111845  14   4  10   7
 -0.0301937294495206  14   4  11   6
 -0.0271644060665319  14   4  12   2
 -0.0006601872246819  14   4  12   8
  0.0206595565574512  14   4  13   5
  0.0070683468060243  14   4  13  11
  0.0296827079944709  14   4  14   4
 -0.0028539695397690  14   5   6   4
 -0.0028539695397690  14   5   7   5
 -0.0050909339308319  14   5  10   6
 -0.0050909339308319  14   5  11   7
  0.0045115757185098  14   5  13   4
 -0.0012585348999506  14   5  13  10
  0.0045115757185098  14   5  14   5
 -0.0033161223775568  14   6   5   4
 -0.0059762293864251  14   6   7   6
 -0.0057736042239835  14   6  10   5
 -0.0057736042239835  14   6  11   4
 -0.0010119324262259  14   6  11  10
  0.0052068841033050  14   6  13   7
  0.0052068841033050  14   6  14   6
 -0.1185731231786915  14   7   1   1
 -0.0711816566259456  14   7   2   2
  0.0239195351902328  14   7   3   1
 -0.0761282249377353  14   7   3   3
 -0.0895416287564190  14   7   4   4
 -0.0829093840013054  14   7   5   5
 -0.1008570269738040  14   7   6   6
 -0.1128094857466546  14   7   7   7
 -0.0106133965978707  14   7   8   2
 -0.1358329564777523  14   7   8   8
 -0.0209522284388247  14   7   9   1
  0.0308241046131045  14   7   9   3
 -0.0373747383926488  14   7   9   9
 -0.0570102235206542  14   7  10   4
 -0.0616842365407365  14   7  10  10
 -0.0454630150726873  14   7  11   5
 -0.0596603716882846  14   7  11  11
 -0.0263129493048102  14   7  12   1
 -0.0321413663331531  14   7  12   3
 -0.0042805184790590  14   7  12   9
 -0.0520148197476037  14   7  12  12
  0.0398894115816049  14   7  13   6
 -0.0333656923015003  14   7  13  13
  0.0503031797882147  14   7  14   7
 -0.0219230414790099  14   8   4   1
  0.0007787886946051  14   8   4   3
 -0.0131938639897077  14   8   7   2
 -0.0197127850609557  14   8   8   7
 -0.0014546267252197  14   8   9   4
 -0.0122836008863948  14   8  10   1
  0.0030153629688858  14   8  10   3
 -0.0045472503355652  14   8  10   9
 -0.0036728150749330  14   8  12   4
 -0.0075031443131633  14   8  12  10
  0.0024114800735498  14   8  14   2
  0.0103218175632165  14   8  14   8
  0.0040972337146352  14   9   4   2
 -0.0011659012045811  14   9   7   1
  0.0069188669498436  14   9   7   3
 -0.0049758949893253  14   9   8   4
  0.0016276281525599  14   9   9   7
 -0.0013354292372461  14   9  10   2
 -0.0025726591249867  14   9  10   8
 -0.0003316944407798  14   9  12   7
  0.0025381400748212  14   9  14   1
  0.0047082332999776  14   9  14   3
  0.0095649926124739  14   9  14   9
 -0.0535804889310009  14  10   2   1
 -0.0932273241664827  14  10   3   2
 -0.0889519093774085  14  10   6   5
 -0.1060692556454152  14  10   7   4
 -0.0609595330092139  14  10   8   1
  0.0590834141088398  14  10   8   3
 -0.0040968876855285  14  10   9   2
 -0.0179765113928333  14  10   9   8
 -0.0516408678103788  14  10  10   7
 -0.0462464779571814  14  10  11   6
 -0.0315873391000130  14  10  12   2
  0.0091010348117178  14  10  12   8
  0.0070683468060245  14  10  13   5
  0.0622610990405791  14  10  13  11
  0.0045512770061229  14  10  14   4
  0.0791328440013547  14  10  14  10
 -0.0085586731340033  14  11   6   4
 -0.0085586731340033  14  11   7   5
 -0.0026971949265985  14  11  10   6
 -0.0026971949265985  14  11  11   7
 -0.0012585348999506  14  11  13   4
  0.0084358724803879  14  11  13  10
 -0.0012585348999506  14  11  14   5
  0.0084358724803879  14  11  14  11
 -0.0283860019594114  14  12   4   2
 -0.0219868413699820  14  12   7   1
 -0.0219787052350238  14  12   7   3
 -0.0100390768202908  14  12   8   4
  0.0012051564255547  14  12   9   7
 -0.0025941037640050  14  12  10   2
 -0.0038271011085118  14  12  10   8
 -0.0056391250012736  14  12  12   7