 &FCI NORB=  26,NELEC=  10,MS2=   0,
  ORBSYM=1,5,3,2,1,6,7,5,1,3,2,1,6,7,5,1,4,5,3,2,8,5,1,6,7,5,
  ISYM=   1,
  ITGENERAL=1,
 &END
  0.9063040370735397   1   1   1   1
  0.0372520198165855   2   1   2   1
  0.5363192280178967   2   2   1   1
  0.5454422316683332   2   2   2   2
  0.1147025935495029   3   1   3   1
  0.0397782136185418   3   2   3   2
  0.6936015216107198   3   3   1   1
  0.5124974217253030   3   3   2   2
  0.6282168447414921   3   3   3   3
  0.1147025935495029   4   1   4   1
  0.0397782136185419   4   2   4   2
  0.0263229988166390   4   3   4   3
  0.6936015216107202   4   4   1   1
  0.5124974217253033   4   4   2   2
  0.5755708471082143   4   4   3   3
  0.6282168447414925   4   4   4   4
  0.1537889899673847   5   1   1   1
  0.0121477515129128   5   1   2   2
  0.0685736288461525   5   1   3   3
  0.0685736288461525   5   1   4   4
  0.0620289290277946   5   1   5   1
 -0.0762233051015328   5   2   2   1
  0.2159181451963978   5   2   5   2
 -0.0155534111249044   5   3   3   1
  0.0263851407754418   5   3   5   3
 -0.0155534111249044   5   4   4   1
  0.0263851407754418   5   4   5   4
  0.5884954061709703   5   5   1   1
  0.5512088449537443   5   5   2   2
  0.5284124172922754   5   5   3   3
  0.5284124172922756   5   5   4   4
  0.0379544725759314   5   5   5   1
  0.5714998263685168   5   5   5   5
  0.0354062289109768   6   1   4   2
  0.0429009804705174   6   1   6   1
  0.0692871525009757   6   2   4   1
 -0.0374885892460310   6   2   5   4
  0.0777028910661032   6   2   6   2
  0.0182068520812943   6   3   6   3
  0.0755195253267860   6   4   2   1
 -0.1485461242678756   6   4   5   2
  0.1791620559826460   6   4   6   4
 -0.0356661280944968   6   5   4   2
 -0.0231484170876605   6   5   6   1
  0.0392297403494408   6   5   6   5
  0.6914616721659299   6   6   1   1
  0.5644319619573042   6   6   2   2
  0.5935822961110860   6   6   3   3
  0.6407399035574649   6   6   4   4
  0.0556541944424952   6   6   5   1
  0.5767109236359765   6   6   5   5
  0.6958648805709529   6   6   6   6
  0.0354062289109767   7   1   3   2
  0.0429009804705173   7   1   7   1
  0.0692871525009756   7   2   3   1
 -0.0374885892460310   7   2   5   3
  0.0777028910661031   7   2   7   2
  0.0755195253267859   7   3   2   1
 -0.1485461242678755   7   3   5   2
  0.1427483518200573   7   3   6   4
  0.1791620559826457   7   3   7   3
  0.0182068520812943   7   4   6   3
  0.0182068520812943   7   4   7   4
 -0.0356661280944968   7   5   3   2
 -0.0231484170876604   7   5   7   1
  0.0392297403494407   7   5   7   5
  0.0235788037231892   7   6   4   3
  0.0280810028695473   7   6   7   6
  0.6914616721659292   7   7   1   1
  0.5644319619573035   7   7   2   2
  0.6407399035574639   7   7   3   3
  0.5935822961110858   7   7   4   4
  0.0556541944424951   7   7   5   1
  0.5767109236359760   7   7   5   5
  0.6397028748318573   7   7   6   6
  0.6958648805709514   7   7   7   7
  0.0510232981503327   8   1   2   1
 -0.0712705147563488   8   1   5   2
  0.1169445740766966   8   1   6   4
  0.1169445740766965   8   1   7   3
  0.1327870028339889   8   1   8   1
  0.0541721803895083   8   2   1   1
 -0.0253302389885736   8   2   2   2
  0.0329125062732475   8   2   3   3
  0.0329125062732476   8   2   4   4
  0.0179753335745476   8   2   5   1
 -0.0276965266692395   8   2   5   5
  0.0174530148681025   8   2   6   6
  0.0174530148681024   8   2   7   7
  0.0363223467151811   8   2   8   2
  0.0240065208165591   8   3   3   2
  0.0376709736568281   8   3   7   1
 -0.0084112040119996   8   3   7   5
  0.0387933498860781   8   3   8   3
  0.0240065208165591   8   4   4   2
  0.0376709736568282   8   4   6   1
 -0.0084112040119996   8   4   6   5
  0.0387933498860781   8   4   8   4
  0.0368081869712881   8   5   2   1
 -0.1040673572576470   8   5   5   2
  0.0802444651077064   8   5   6   4
  0.0802444651077064   8   5   7   3
  0.0691929144426731   8   5   8   1
  0.0796067584953502   8   5   8   5
  0.0719769920770978   8   6   4   1
 -0.0048390132135368   8   6   5   4
  0.0392756179159207   8   6   6   2
  0.0566826532014709   8   6   8   6
  0.0719769920770978   8   7   3   1
 -0.0048390132135367   8   7   5   3
  0.0392756179159207   8   7   7   2
  0.0566826532014709   8   7   8   7
  0.8537337948302519   8   8   1   1
  0.5830762038041200   8   8   2   2
  0.6834668566188715   8   8   3   3
  0.6834668566188717   8   8   4   4
  0.1256219732588274   8   8   5   1
  0.6292347292450646   8   8   5   5
  0.7211157049125020   8   8   6   6
  0.7211157049125013   8   8   7   7
  0.0233370201985022   8   8   8   2
  0.8792973092573455   8   8   8   8
 -0.0951151735409476   9   1   1   1
 -0.0223385478811844   9   1   2   2
 -0.0370215789772099   9   1   3   3
 -0.0370215789772100   9   1   4   4
 -0.0401945438739388   9   1   5   1
 -0.0419380636073122   9   1   5   5
 -0.0423261100235360   9   1   6   6
 -0.0423261100235360   9   1   7   7
 -0.0019275012743164   9   1   8   2
 -0.0902274540743630   9   1   8   8
  0.0358188812514383   9   1   9   1
 -0.0000424160692393   9   2   2   1
  0.0126279127846861   9   2   5   2
  0.0056547460003143   9   2   6   4
  0.0056547460003143   9   2   7   3
  0.0080379461556391   9   2   8   1
 -0.0023069175404018   9   2   8   5
  0.0175597112638378   9   2   9   2
  0.0233999625404255   9   3   3   1
 -0.0124597230134679   9   3   5   3
  0.0199465259168833   9   3   7   2
  0.0110722219635533   9   3   8   7
  0.0183439983888057   9   3   9   3
  0.0233999625404255   9   4   4   1
 -0.0124597230134679   9   4   5   4
  0.0199465259168834   9   4   6   2
  0.0110722219635533   9   4   8   6
  0.0183439983888057   9   4   9   4
 -0.1297932704902375   9   5   1   1
 -0.0441173006380126   9   5   2   2
 -0.0856166509656150   9   5   3   3
 -0.0856166509656150   9   5   4   4
 -0.0349966964565603   9   5   5   1
 -0.0564438269493004   9   5   5   5
 -0.0868486245168852   9   5   6   6
 -0.0868486245168852   9   5   7   7
 -0.0132013194241686   9   5   8   2
 -0.1239183004373761   9   5   8   8
  0.0189806355995331   9   5   9   1
  0.0419440054797171   9   5   9   5
  0.0070240434195197   9   6   4   2
  0.0041603558690875   9   6   6   1
 -0.0074897759816983   9   6   6   5
  0.0018010860991298   9   6   8   4
  0.0047890444078143   9   6   9   6
  0.0070240434195196   9   7   3   2
  0.0041603558690875   9   7   7   1
 -0.0074897759816983   9   7   7   5
  0.0018010860991298   9   7   8   3
  0.0047890444078143   9   7   9   7
 -0.0064264566899648   9   8   2   1
  0.0080869266332626   9   8   5   2
 -0.0223560092691408   9   8   6   4
 -0.0223560092691408   9   8   7   3
 -0.0387942759248359   9   8   8   1
 -0.0265536690174448   9   8   8   5
 -0.0074380739210501   9   8   9   2
  0.0224399987899329   9   8   9   8
  0.4565313060512130   9   9   1   1
  0.3919022374194959   9   9   2   2
  0.4130899804586857   9   9   3   3
  0.4130899804586859   9   9   4   4
  0.0301273051851402   9   9   5   1
  0.4039903531476199   9   9   5   5
  0.4175064403210572   9   9   6   6
  0.4175064403210569   9   9   7   7
  0.0028864595801333   9   9   8   2
  0.4542961484959548   9   9   8   8
 -0.0196381442549407   9   9   9   1
 -0.0261524418750301   9   9   9   5
  0.3611991012777966   9   9   9   9
 -0.0465671435748309  10   1   3   1
 -0.0036714199068502  10   1   5   3
 -0.0215508352253156  10   1   7   2
 -0.0334656756242993  10   1   8   7
  0.0015182338174738  10   1   9   3
  0.0306348607267355  10   1  10   1
 -0.0050060064631359  10   2   3   2
 -0.0087233799723410  10   2   7   1
  0.0031538045893347  10   2   7   5
 -0.0071570913785013  10   2   8   3
 -0.0019993253839156  10   2   9   7
  0.0105665815497652  10   2  10   2
 -0.1765817317677642  10   3   1   1
 -0.0849879378643768  10   3   2   2
 -0.1254838496452210  10   3   3   3
 -0.1153853905605958  10   3   4   4
 -0.0414535112915889  10   3   5   1
 -0.0982545901249288  10   3   5   5
 -0.1301020585555924  10   3   6   6
 -0.1446190432808886  10   3   7   7
 -0.0108350166634535  10   3   8   2
 -0.1817065618378388  10   3   8   8
  0.0320316908639641  10   3   9   1
  0.0361096166081072  10   3   9   5
 -0.0443591561678353  10   3   9   9
  0.0757290631363664  10   3  10   3
 -0.0050492295423126  10   4   4   3
 -0.0072584923626482  10   4   7   6
  0.0080189546624127  10   4  10   4
 -0.0223767853250108  10   5   3   1
  0.0017787249291716  10   5   5   3
 -0.0092595979298206  10   5   7   2
 -0.0135814057983966  10   5   8   7
 -0.0045591108232705  10   5   9   3
  0.0046342780547419  10   5  10   1
  0.0141162570013234  10   5  10   5
 -0.0077422445288898  10   6   6   3
 -0.0077422445288898  10   6   7   4
  0.0067959192157760  10   6  10   6
 -0.0312158895928042  10   7   2   1
  0.0517371040415218  10   7   5   2
 -0.0673100650046339  10   7   6   4
 -0.0827945540624133  10   7   7   3
 -0.0678116195002701  10   7   8   1
 -0.0430789723458975  10   7   8   5
 -0.0093157056331759  10   7   9   2
  0.0229587958896659  10   7   9   8
  0.0585277732198864  10   7  10   7
 -0.0120101042419578  10   8   3   2
 -0.0230270341122655  10   8   7   1
  0.0019847549337167  10   8   7   5
 -0.0243081485438281  10   8   8   3
  0.0021353830583996  10   8   9   7
  0.0058378208175629  10   8  10   2
  0.0184252272956043  10   8  10   8
  0.0257742707285598  10   9   3   1
 -0.0016063926408023  10   9   5   3
  0.0096681158935304  10   9   7   2
  0.0164451357229310  10   9   8   7
  0.0124930721197549  10   9   9   3
 -0.0050986348355915  10   9  10   1
 -0.0085577525354002  10   9  10   5
  0.0187625516894634  10   9  10   9
  0.5169418041682157  10  10   1   1
  0.4128671905856808  10  10   2   2
  0.4809546182639762  10  10   3   3
  0.4490476524748959  10  10   4   4
  0.0403938955590826  10  10   5   1
  0.4235681277920889  10  10   5   5
  0.4613113064839655  10  10   6   6
  0.4889426352320461  10  10   7   7
  0.0179737738751235  10  10   8   2
  0.5161299394332131  10  10   8   8
 -0.0218547153780407  10  10   9   1
 -0.0541231474100740  10  10   9   5
  0.3570673710654166  10  10   9   9
 -0.0634522554527850  10  10  10   3
  0.4138277961876444  10  10  10  10
 -0.0465671435748309  11   1   4   1
 -0.0036714199068502  11   1   5   4
 -0.0215508352253156  11   1   6   2
 -0.0334656756242993  11   1   8   6
  0.0015182338174738  11   1   9   4
  0.0306348607267355  11   1  11   1
 -0.0050060064631359  11   2   4   2
 -0.0087233799723410  11   2   6   1
  0.0031538045893347  11   2   6   5
 -0.0071570913785013  11   2   8   4
 -0.0019993253839156  11   2   9   6
  0.0105665815497652  11   2  11   2
 -0.0050492295423126  11   3   4   3
 -0.0072584923626482  11   3   7   6
  0.0080189546624127  11   3  10   4
  0.0080189546624127  11   3  11   3
 -0.1765817317677644  11   4   1   1
 -0.0849879378643769  11   4   2   2
 -0.1153853905605959  11   4   3   3
 -0.1254838496452212  11   4   4   4
 -0.0414535112915889  11   4   5   1
 -0.0982545901249289  11   4   5   5
 -0.1446190432808889  11   4   6   6
 -0.1301020585555924  11   4   7   7
 -0.0108350166634535  11   4   8   2
 -0.1817065618378388  11   4   8   8
  0.0320316908639642  11   4   9   1
  0.0361096166081072  11   4   9   5
 -0.0443591561678353  11   4   9   9
  0.0596911538115410  11   4  10   3
 -0.0664412685258961  11   4  10  10
  0.0757290631363665  11   4  11   4
 -0.0223767853250108  11   5   4   1
  0.0017787249291716  11   5   5   4
 -0.0092595979298207  11   5   6   2
 -0.0135814057983966  11   5   8   6
 -0.0045591108232705  11   5   9   4
  0.0046342780547419  11   5  11   1
  0.0141162570013234  11   5  11   5
 -0.0312158895928042  11   6   2   1
  0.0517371040415218  11   6   5   2
 -0.0827945540624134  11   6   6   4
 -0.0673100650046338  11   6   7   3
 -0.0678116195002701  11   6   8   1
 -0.0430789723458975  11   6   8   5
 -0.0093157056331759  11   6   9   2
  0.0229587958896660  11   6   9   8
  0.0449359347883345  11   6  10   7
  0.0585277732198865  11   6  11   6
 -0.0077422445288898  11   7   6   3
 -0.0077422445288898  11   7   7   4
  0.0067959192157760  11   7  10   6
  0.0067959192157760  11   7  11   7
 -0.0120101042419578  11   8   4   2
 -0.0230270341122656  11   8   6   1
  0.0019847549337167  11   8   6   5
 -0.0243081485438281  11   8   8   4
  0.0021353830583996  11   8   9   6
  0.0058378208175629  11   8  11   2
  0.0184252272956043  11   8  11   8
  0.0257742707285598  11   9   4   1
 -0.0016063926408023  11   9   5   4
  0.0096681158935304  11   9   6   2
  0.0164451357229310  11   9   8   6
  0.0124930721197549  11   9   9   4
 -0.0050986348355915  11   9  11   1
 -0.0085577525354002  11   9  11   5
  0.0187625516894635  11   9  11   9
  0.0159534828945403  11  10   4   3
  0.0138156643740406  11  10   7   6
  0.0014945065365555  11  10  10   4
  0.0014945065365555  11  10  11   3
  0.0173686964043933  11  10  11  10
  0.5169418041682162  11  11   1   1
  0.4128671905856814  11  11   2   2
  0.4490476524748961  11  11   3   3
  0.4809546182639769  11  11   4   4
  0.0403938955590826  11  11   5   1
  0.4235681277920894  11  11   5   5
  0.4889426352320470  11  11   6   6
  0.4613113064839655  11  11   7   7
  0.0179737738751235  11  11   8   2
  0.5161299394332133  11  11   8   8
 -0.0218547153780407  11  11   9   1
 -0.0541231474100740  11  11   9   5
  0.3570673710654169  11  11   9   9
 -0.0664412685258961  11  11  10   3
  0.3790904033788584  11  11  10  10
 -0.0634522554527851  11  11  11   4
  0.4138277961876453  11  11  11  11
  0.0840578094124029  12   1   1   1
  0.0452970091483859  12   1   2   2
  0.0529717817903733  12   1   3   3
  0.0529717817903734  12   1   4   4
  0.0212195780626801  12   1   5   1
  0.0533689978025279  12   1   5   5
  0.0660475603469518  12   1   6   6
  0.0660475603469518  12   1   7   7
  0.0015971077439495  12   1   8   2
  0.0884071204870825  12   1   8   8
 -0.0204948129872710  12   1   9   1
 -0.0173571525440288  12   1   9   5
  0.0192940578367512  12   1   9   9
 -0.0337647172251522  12   1  10   3
  0.0288820753856710  12   1  10  10
 -0.0337647172251523  12   1  11   4
  0.0288820753856710  12   1  11  11
  0.0199083046418785  12   1  12   1
  0.0330917319247295  12   2   2   1
 -0.0891948454895920  12   2   5   2
  0.0723704680616649  12   2   6   4
  0.0723704680616648  12   2   7   3
  0.0439599723773953  12   2   8   1
  0.0573850647741340  12   2   8   5
  0.0107012835412047  12   2   9   2
 -0.0182422008923533  12   2   9   8
 -0.0442186036081660  12   2  10   7
 -0.0442186036081661  12   2  11   6
  0.0665864834481901  12   2  12   2
 -0.0011883143261885  12   3   3   1
 -0.0000274671165786  12   3   5   3
  0.0071918816788625  12   3   7   2
  0.0013827256516624  12   3   8   7
 -0.0098027139988537  12   3   9   3
 -0.0114277093605433  12   3  10   1
  0.0107923024692675  12   3  10   5
 -0.0097690926288796  12   3  10   9
  0.0202515580651142  12   3  12   3
 -0.0011883143261884  12   4   4   1
 -0.0000274671165786  12   4   5   4
  0.0071918816788626  12   4   6   2
  0.0013827256516625  12   4   8   6
 -0.0098027139988536  12   4   9   4
 -0.0114277093605433  12   4  11   1
  0.0107923024692675  12   4  11   5
 -0.0097690926288796  12   4  11   9
  0.0202515580651142  12   4  12   4
 -0.0634189784459064  12   5   1   1
 -0.1013373610581629  12   5   2   2
 -0.0674851211667862  12   5   3   3
 -0.0674851211667862  12   5   4   4
  0.0037883172924689  12   5   5   1
 -0.1034794146469706  12   5   5   5
 -0.0993037800636980  12   5   6   6
 -0.0993037800636979  12   5   7   7
  0.0256226093210377  12   5   8   2
 -0.1034043260062155  12   5   8   8
  0.0061263231087527  12   5   9   1
  0.0187476324747443  12   5   9   5
 -0.0251299310181961  12   5   9   9
  0.0341089313460321  12   5  10   3
 -0.0371103514926500  12   5  10  10
  0.0341089313460321  12   5  11   4
 -0.0371103514926501  12   5  11  11
 -0.0199037755372866  12   5  12   1
  0.0608706758208417  12   5  12   5
  0.0190267630196044  12   6   4   2
  0.0182475836266863  12   6   6   1
 -0.0187362789147648  12   6   6   5
  0.0103619519416875  12   6   8   4
  0.0033720031222060  12   6   9   6
 -0.0120122153034561  12   6  11   2
 -0.0080932284911699  12   6  11   8
  0.0208251017367245  12   6  12   6
  0.0190267630196044  12   7   3   2
  0.0182475836266863  12   7   7   1
 -0.0187362789147647  12   7   7   5
  0.0103619519416875  12   7   8   3
  0.0033720031222059  12   7   9   7
 -0.0120122153034561  12   7  10   2
 -0.0080932284911699  12   7  10   8
  0.0208251017367244  12   7  12   7
 -0.0098431742067136  12   8   2   1
  0.0476791493417850  12   8   5   2
 -0.0191363582058280  12   8   6   4
 -0.0191363582058279  12   8   7   3
  0.0009662748922179  12   8   8   1
 -0.0257378582635700  12   8   8   5
 -0.0019778915958905  12   8   9   2
  0.0017162492865245  12   8   9   8
  0.0050206595227455  12   8  10   7
  0.0050206595227455  12   8  11   6
 -0.0255273719464880  12   8  12   2
  0.0212743616857432  12   8  12   8
 -0.0529460149444212  12   9   1   1
  0.0042914166691267  12   9   2   2
 -0.0382932998343723  12   9   3   3
 -0.0382932998343723  12   9   4   4
 -0.0134487179572284  12   9   5   1
  0.0030080495823791  12   9   5   5
 -0.0196481622598056  12   9   6   6
 -0.0196481622598056  12   9   7   7
 -0.0195154146058685  12   9   8   2
 -0.0291954085242599  12   9   8   8
 -0.0043115546476329  12   9   9   1
  0.0202737212899972  12   9   9   5
 -0.0099371106875015  12   9   9   9
  0.0001611233887592  12   9  10   3
 -0.0296011522392847  12   9  10  10
  0.0001611233887592  12   9  11   4
 -0.0296011522392847  12   9  11  11
  0.0036116556134789  12   9  12   1
 -0.0104901327104645  12   9  12   5
  0.0317731929697053  12   9  12   9
 -0.0528217248223052  12  10   3   1
  0.0243547349541174  12  10   5   3
 -0.0478013910795729  12  10   7   2
 -0.0287398333647270  12  10   8   7
 -0.0217378104882989  12  10   9   3
  0.0081047969913996  12  10  10   1
  0.0176373462875807  12  10  10   5
 -0.0191136216492656  12  10  10   9
  0.0122385434788802  12  10  12   3
  0.0518194065640882  12  10  12  10
 -0.0528217248223052  12  11   4   1
  0.0243547349541174  12  11   5   4
 -0.0478013910795729  12  11   6   2
 -0.0287398333647271  12  11   8   6
 -0.0217378104882989  12  11   9   4
  0.0081047969913996  12  11  11   1
  0.0176373462875807  12  11  11   5
 -0.0191136216492656  12  11  11   9
  0.0122385434788801  12  11  12   4
  0.0518194065640883  12  11  12  11
  0.4922671585446843  12  12   1   1
  0.4657015970865898  12  12   2   2
  0.4662778931495561  12  12   3   3
  0.4662778931495563  12  12   4   4
  0.0185022239419984  12  12   5   1
  0.4729836148409279  12  12   5   5
  0.4948047831935361  12  12   6   6
  0.4948047831935356  12  12   7   7
 -0.0110674638434074  12  12   8   2
  0.5197975176884234  12  12   8   8
 -0.0148525007379689  12  12   9   1
 -0.0456524422638075  12  12   9   5
  0.3682936940341131  12  12   9   9
 -0.0631337311827811  12  12  10   3
  0.3931162942061351  12  12  10  10
 -0.0631337311827811  12  12  11   4
  0.3931162942061355  12  12  11  11
  0.0306186289416261  12  12  12   1
 -0.0701983172432356  12  12  12   5
 -0.0112902351875351  12  12  12   9
  0.4249150815246833  12  12  12  12
 -0.0049059307484679  13   1   4   2
 -0.0103510944095036  13   1   6   1
  0.0009444343440427  13   1   6   5
 -0.0103824348867423  13   1   8   4
  0.0004270382009056  13   1   9   6
  0.0061664505679710  13   1  11   2
  0.0085375706579629  13   1  11   8
 -0.0073030142227214  13   1  12   6
  0.0054127945473996  13   1  13   1
  0.0022364901852641  13   2   4   1
 -0.0049973813428218  13   2   5   4
  0.0027302286610657  13   2   6   2
 -0.0008583356291083  13   2   8   6
  0.0035275675450268  13   2   9   4
  0.0076808705147371  13   2  11   1
 -0.0114073981673904  13   2  11   5
  0.0023989864640009  13   2  11   9
 -0.0134457866492249  13   2  12   4
 -0.0135865889655439  13   2  12  11
  0.0150393332556582  13   2  13   2
 -0.0028383117690104  13   3   6   3
 -0.0028383117690104  13   3   7   4
  0.0043543764246155  13   3  10   6
  0.0043543764246155  13   3  11   7
  0.0035371979377449  13   3  13   3
 -0.0097783539182435  13   4   2   1
  0.0110776165505096  13   4   5   2
 -0.0305729113270738  13   4   6   4
 -0.0248962877890529  13   4   7   3
 -0.0303762904332748  13   4   8   1
 -0.0182146304418821  13   4   8   5
 -0.0081577181189901  13   4   9   2
  0.0141564033122681  13   4   9   8
  0.0235381616090305  13   4  10   7
  0.0322469144582615  13   4  11   6
 -0.0241248711260226  13   4  12   2
  0.0004659407332098  13   4  12   8
  0.0226294060575727  13   4  13   4
 -0.0041806412956712  13   5   4   2
 -0.0031550041819270  13   5   6   1
  0.0022302994873847  13   5   6   5
 -0.0036036595352530  13   5   8   4
  0.0022017007288242  13   5   9   6
 -0.0089241654270237  13   5  11   2
  0.0015711038840018  13   5  11   8
  0.0075845096983564  13   5  12   6
 -0.0031859699704238  13   5  13   1
  0.0114245151743081  13   5  13   5
 -0.1158092466061019  13   6   1   1
 -0.0664169986457796  13   6   2   2
 -0.0830184474349090  13   6   3   3
 -0.0897465945332171  13   6   4   4
 -0.0233004079382074  13   6   5   1
 -0.0735495482497434  13   6   5   5
 -0.1106020191816695  13   6   6   6
 -0.0987323034243546  13   6   7   7
 -0.0044826703002360  13   6   8   2
 -0.1300448969579618  13   6   8   8
  0.0186374257732915  13   6   9   1
  0.0279880566963966  13   6   9   5
 -0.0308139941338858  13   6   9   9
  0.0425966941184436  13   6  10   3
 -0.0497290215711172  13   6  10  10
  0.0528740861102901  13   6  11   4
 -0.0493073862346767  13   6  11  11
 -0.0237312258836356  13   6  12   1
  0.0318313934401662  13   6  12   5
  0.0014999155410266  13   6  12   9
 -0.0516721347325275  13   6  12  12
  0.0422193053007971  13   6  13   6
 -0.0033640735491540  13   7   4   3
 -0.0059348578786574  13   7   7   6
  0.0051386959959232  13   7  10   4
  0.0051386959959232  13   7  11   3
  0.0002108176682202  13   7  11  10
  0.0043305619836571  13   7  13   7
 -0.0194313076668757  13   8   4   1
 -0.0016779737389559  13   8   5   4
 -0.0088511879687500  13   8   6   2
 -0.0175036542524120  13   8   8   6
  0.0013207629052448  13   8   9   4
  0.0127364713113312  13   8  11   1
  0.0034737034174741  13   8  11   5
 -0.0024464148020008  13   8  11   9
 -0.0036241138195002  13   8  12   4
  0.0042980081582221  13   8  12  11
  0.0016748130146369  13   8  13   2
  0.0072897305530713  13   8  13   8
 -0.0049592110715405  13   9   4   2
 -0.0005049584731482  13   9   6   1
  0.0073216868595948  13   9   6   5
  0.0028014988544555  13   9   8   4
  0.0019472886295202  13   9   9   6
 -0.0032661155060680  13   9  11   2
 -0.0008671523385280  13   9  11   8
 -0.0007744653261222  13   9  12   6
 -0.0016284792801966  13   9  13   1
  0.0055437931835247  13   9  13   5
  0.0108823310742577  13   9  13   9
  0.0075276656630315  13  10   6   3
  0.0075276656630315  13  10   7   4
 -0.0008377505855588  13  10  10   6
 -0.0008377505855588  13  10  11   7
  0.0019725663773480  13  10  13   3
  0.0088586556441490  13  10  13  10
  0.0400387771734004  13  11   2   1
 -0.0904607828605642  13  11   5   2
  0.0891227958789257  13  11   6   4
  0.0740674645528627  13  11   7   3
  0.0527279778110145  13  11   8   1
  0.0427520700503659  13  11   8   5
 -0.0079723537745843  13  11   9   2
 -0.0059504118270628  13  11   9   8
 -0.0253069944578746  13  11  10   7
 -0.0269824956289922  13  11  11   6
  0.0241690660757831  13  11  12   2
 -0.0125132938288136  13  11  12   8
  0.0021381345593914  13  11  13   4
  0.0734256691416577  13  11  13  11
 -0.0245823054389012  13  12   4   2
 -0.0186911701044634  13  12   6   1
  0.0229038234078858  13  12   6   5
 -0.0113489791960849  13  12   8   4
 -0.0028265359168413  13  12   9   6
 -0.0047728711052438  13  12  11   2
  0.0043622150798974  13  12  11   8
 -0.0053022874929603  13  12  12   6
 -0.0012620727153312  13  12  13   1
  0.0114891783178914  13  12  13   5
  0.0089744718042174  13  12  13   9
  0.0276449431505074  13  12  13  12
  0.3918412626129170  13  13   1   1
  0.3676987911491008  13  13   2   2
  0.3660587851295791  13  13   3   3
  0.3857723980147540  13  13   4   4
  0.0115862899012062  13  13   5   1
  0.3703071281185829  13  13   5   5
  0.3990705709440724  13  13   6   6
  0.3800231188800997  13  13   7   7
  0.0026038632310330  13  13   8   2
  0.4005661767793298  13  13   8   8
 -0.0100024286458831  13  13   9   1
 -0.0212448967042076  13  13   9   5
  0.3220730182311561  13  13   9   9
 -0.0351180889449864  13  13  10   3
  0.3256332646310926  13  13  10  10
 -0.0284671254098494  13  13  11   4
  0.3527246521479749  13  13  11  11
  0.0148738054144646  13  13  12   1
 -0.0234852777721630  13  13  12   5
 -0.0061105144613708  13  13  12   9
  0.3473194295087472  13  13  12  12
 -0.0204676478903561  13  13  13   6
  0.3359609272990144  13  13  13  13
 -0.0049059307484679  14   1   3   2
 -0.0103510944095035  14   1   7   1
  0.0009444343440427  14   1   7   5
 -0.0103824348867423  14   1   8   3
  0.0004270382009056  14   1   9   7
  0.0061664505679710  14   1  10   2
  0.0085375706579629  14   1  10   8
 -0.0073030142227213  14   1  12   7
  0.0054127945473996  14   1  14   1
  0.0022364901852641  14   2   3   1
 -0.0049973813428218  14   2   5   3
  0.0027302286610657  14   2   7   2
 -0.0008583356291083  14   2   8   7
  0.0035275675450268  14   2   9   3
  0.0076808705147371  14   2  10   1
 -0.0114073981673904  14   2  10   5
  0.0023989864640009  14   2  10   9
 -0.0134457866492249  14   2  12   3
 -0.0135865889655439  14   2  12  10
  0.0150393332556582  14   2  14   2
 -0.0097783539182434  14   3   2   1
  0.0110776165505095  14   3   5   2
 -0.0248962877890528  14   3   6   4
 -0.0305729113270737  14   3   7   3
 -0.0303762904332748  14   3   8   1
 -0.0182146304418821  14   3   8   5
 -0.0081577181189901  14   3   9   2
  0.0141564033122682  14   3   9   8
  0.0322469144582615  14   3  10   7
  0.0235381616090305  14   3  11   6
 -0.0241248711260226  14   3  12   2
  0.0004659407332097  14   3  12   8
  0.0155550101820829  14   3  13   4
 -0.0018069981953045  14   3  13  11
  0.0226294060575728  14   3  14   3
 -0.0028383117690104  14   4   6   3
 -0.0028383117690104  14   4   7   4
  0.0043543764246155  14   4  10   6
  0.0043543764246155  14   4  11   7
  0.0035371979377449  14   4  13   3
  0.0019725663773480  14   4  13  10
  0.0035371979377449  14   4  14   4
 -0.0041806412956712  14   5   3   2
 -0.0031550041819270  14   5   7   1
  0.0022302994873847  14   5   7   5
 -0.0036036595352530  14   5   8   3
  0.0022017007288242  14   5   9   7
 -0.0089241654270237  14   5  10   2
  0.0015711038840018  14   5  10   8
  0.0075845096983564  14   5  12   7
 -0.0031859699704238  14   5  14   1
  0.0114245151743081  14   5  14   5
 -0.0033640735491540  14   6   4   3
 -0.0059348578786574  14   6   7   6
  0.0051386959959232  14   6  10   4
  0.0051386959959232  14   6  11   3
  0.0002108176682202  14   6  11  10
  0.0043305619836571  14   6  13   7
  0.0043305619836571  14   6  14   6
 -0.1158092466061018  14   7   1   1
 -0.0664169986457795  14   7   2   2
 -0.0897465945332170  14   7   3   3
 -0.0830184474349090  14   7   4   4
 -0.0233004079382074  14   7   5   1
 -0.0735495482497434  14   7   5   5
 -0.0987323034243546  14   7   6   6
 -0.1106020191816693  14   7   7   7
 -0.0044826703002360  14   7   8   2
 -0.1300448969579613  14   7   8   8
  0.0186374257732915  14   7   9   1
  0.0279880566963966  14   7   9   5
 -0.0308139941338857  14   7   9   9
  0.0528740861102900  14   7  10   3
 -0.0493073862346766  14   7  10  10
  0.0425966941184436  14   7  11   4
 -0.0497290215711171  14   7  11  11
 -0.0237312258836356  14   7  12   1
  0.0318313934401661  14   7  12   5
  0.0014999155410265  14   7  12   9
 -0.0516721347325276  14   7  12  12
  0.0335581813334830  14   7  13   6
 -0.0255269618844744  14   7  13  13
  0.0422193053007971  14   7  14   7
 -0.0194313076668757  14   8   3   1
 -0.0016779737389559  14   8   5   3
 -0.0088511879687499  14   8   7   2
 -0.0175036542524119  14   8   8   7
  0.0013207629052448  14   8   9   3
  0.0127364713113312  14   8  10   1
  0.0034737034174741  14   8  10   5
 -0.0024464148020008  14   8  10   9
 -0.0036241138195001  14   8  12   3
  0.0042980081582221  14   8  12  10
  0.0016748130146369  14   8  14   2
  0.0072897305530713  14   8  14   8
 -0.0049592110715404  14   9   3   2
 -0.0005049584731482  14   9   7   1
  0.0073216868595947  14   9   7   5
  0.0028014988544555  14   9   8   3
  0.0019472886295201  14   9   9   7
 -0.0032661155060680  14   9  10   2
 -0.0008671523385280  14   9  10   8
 -0.0007744653261222  14   9  12   7
 -0.0016284792801966  14   9  14   1
  0.0055437931835247  14   9  14   5
  0.0108823310742577  14   9  14   9
  0.0400387771734004  14  10   2   1
 -0.0904607828605641  14  10   5   2
  0.0740674645528627  14  10   6   4
  0.0891227958789256  14  10   7   3
  0.0527279778110145  14  10   8   1
  0.0427520700503658  14  10   8   5
 -0.0079723537745843  14  10   9   2
 -0.0059504118270628  14  10   9   8
 -0.0269824956289921  14  10  10   7
 -0.0253069944578746  14  10  11   6
  0.0241690660757831  14  10  12   2
 -0.0125132938288135  14  10  12   8
 -0.0018069981953045  14  10  13   4
  0.0557083578533596  14  10  13  11
  0.0021381345593915  14  10  14   3
  0.0734256691416574  14  10  14  10
  0.0075276656630315  14  11   6   3
  0.0075276656630315  14  11   7   4
 -0.0008377505855588  14  11  10   6
 -0.0008377505855588  14  11  11   7
  0.0019725663773480  14  11  13   3
  0.0088586556441490  14  11  13  10
  0.0019725663773480  14  11  14   4
  0.0088586556441490  14  11  14  11
 -0.0245823054389012  14  12   3   2
 -0.0186911701044634  14  12   7   1
  0.0229038234078858  14  12   7   5
 -0.0113489791960849  14  12   8   3
 -0.0028265359168413  14  12   9   7
 -0.0047728711052438  14  12  10   2
  0.0043622150798974  14  12  10   8