 &FCI NORB=  26,NELEC=  10,MS2=   0,
  ORBSYM=1,5,3,2,1,6,7,5,1,3,2,1,6,7,5,1,4,5,3,2,8,5,1,6,7,5,
  ISYM=   1,
  ITGENERAL=1,
 &END
  0.5304058375334172   1   1   1   1
  0.2021592543672547   2   1   2   1
  0.5312779018889284   2   2   1   1
  0.5482301273024089   2   2   2   2
  0.0839855849411049   3   1   3   1
  0.0398141807120795   3   2   3   2
  0.5405742273127916   3   3   1   1
  0.5145219686421919   3   3   2   2
  0.6283278472083378   3   3   3   3
  0.0839855849411049   4   1   4   1
  0.0398141807120795   4   2   4   2
  0.0263159931909677   4   3   4   3
  0.5405742273127918   4   4   1   1
  0.5145219686421920   4   4   2   2
  0.5756958608264027   4   4   3   3
  0.6283278472083383   4   4   4   4
  0.0258251187331038   5   1   1   1
 -0.0062120653239837   5   1   2   2
  0.0814277328677843   5   1   3   3
  0.0814277328677843   5   1   4   4
  0.0720676106302357   5   1   5   1
 -0.0882675584999586   5   2   2   1
  0.0499842423231271   5   2   5   2
  0.0435354172713848   5   3   3   1
  0.0551387661644506   5   3   5   3
  0.0435354172713848   5   4   4   1
  0.0551387661644506   5   4   5   4
  0.5999291644143818   5   5   1   1
  0.5591578017592663   5   5   2   2
  0.6802709075829793   5   5   3   3
  0.6802709075829794   5   5   4   4
  0.1386047082343484   5   5   5   1
  0.9189976321552611   5   5   5   5
  0.0492003373915130   6   1   4   2
  0.0613797727396024   6   1   6   1
  0.0742544703559421   6   2   4   1
  0.0226371622210646   6   2   5   4
  0.0772707943355303   6   2   6   2
  0.0183555045316719   6   3   6   3
  0.1587754836521501   6   4   2   1
 -0.0511261493875972   6   4   5   2
  0.1806361682209725   6   4   6   4
  0.0000262395606173   6   5   4   2
  0.0019198136828939   6   5   6   1
  0.0181707542155552   6   5   6   5
  0.5789537190912809   6   6   1   1
  0.5690748749174553   6   6   2   2
  0.5971723412746885   6   6   3   3
  0.6446723442884258   6   6   4   4
  0.0581219733422546   6   6   5   1
  0.6954980266659875   6   6   5   5
  0.7048856107868865   6   6   6   6
  0.0492003373915130   7   1   3   2
  0.0613797727396024   7   1   7   1
  0.0742544703559421   7   2   3   1
  0.0226371622210646   7   2   5   3
  0.0772707943355303   7   2   7   2
  0.1587754836521500   7   3   2   1
 -0.0511261493875972   7   3   5   2
  0.1439251591576285   7   3   6   4
  0.1806361682209723   7   3   7   3
  0.0183555045316719   7   4   6   3
  0.0183555045316719   7   4   7   4
  0.0000262395606173   7   5   3   2
  0.0019198136828939   7   5   7   1
  0.0181707542155552   7   5   7   5
  0.0237500015068685   7   6   4   3
  0.0285659247260961   7   6   7   6
  0.5789537190912806   7   7   1   1
  0.5690748749174550   7   7   2   2
  0.6446723442884251   7   7   3   3
  0.5971723412746883   7   7   4   4
  0.0581219733422545   7   7   5   1
  0.6954980266659869   7   7   5   5
  0.6477537613346938   7   7   6   6
  0.7048856107868855   7   7   7   7
  0.0116843940119334   8   1   2   1
 -0.0237989112930139   8   1   5   2
 -0.0213439455973828   8   1   6   4
 -0.0213439455973828   8   1   7   3
  0.0337786335116003   8   1   8   1
  0.0131094585344264   8   2   1   1
  0.0336388193471167   8   2   2   2
 -0.0227981805102977   8   2   3   3
 -0.0227981805102977   8   2   4   4
 -0.0385166189936832   8   2   5   1
 -0.0191046100366149   8   2   5   5
 -0.0056304154990888   8   2   6   6
 -0.0056304154990888   8   2   7   7
  0.0364870675811325   8   2   8   2
 -0.0222298654534653   8   3   3   2
 -0.0294273503285099   8   3   7   1
 -0.0208108814928941   8   3   7   5
  0.0364269815813864   8   3   8   3
 -0.0222298654534653   8   4   4   2
 -0.0294273503285099   8   4   6   1
 -0.0208108814928941   8   4   6   5
  0.0364269815813864   8   4   8   4
 -0.1335967674798564   8   5   2   1
  0.0440452978418345   8   5   5   2
 -0.1420372013453451   8   5   6   4
 -0.1420372013453450   8   5   7   3
  0.0215694151946205   8   5   8   1
  0.1813608523651561   8   5   8   5
 -0.0502530394537780   8   6   4   1
 -0.0467320136224529   8   6   5   4
 -0.0358423430462795   8   6   6   2
  0.0537560424721241   8   6   8   6
 -0.0502530394537779   8   7   3   1
 -0.0467320136224528   8   7   5   3
 -0.0358423430462795   8   7   7   2
  0.0537560424721240   8   7   8   7
  0.6183447641356189   8   8   1   1
  0.5913216938077082   8   8   2   2
  0.6870314420154326   8   8   3   3
  0.6870314420154330   8   8   4   4
  0.1100852604505888   8   8   5   1
  0.8773600474539265   8   8   5   5
  0.7323683857519416   8   8   6   6
  0.7323683857519407   8   8   7   7
 -0.0066293866477656   8   8   8   2
  0.9013740025479497   8   8   8   8
  0.0962013300283348   9   1   1   1
  0.1058182925462539   9   1   2   2
  0.0880939828756080   9   1   3   3
  0.0880939828756080   9   1   4   4
 -0.0015218764341538   9   1   5   1
  0.1238863358577459   9   1   5   5
  0.1212420474011622   9   1   6   6
  0.1212420474011620   9   1   7   7
  0.0210758764409035   9   1   8   2
  0.1439747345878823   9   1   8   8
  0.0615256802549818   9   1   9   1
  0.0884116760549861   9   2   2   1
 -0.0402371921710998   9   2   5   2
  0.0750850241576370   9   2   6   4
  0.0750850241576369   9   2   7   3
  0.0123543620669484   9   2   8   1
 -0.0762122643266520   9   2   8   5
  0.0691688606700191   9   2   9   2
  0.0004784948842376   9   3   3   1
  0.0000053129078241   9   3   5   3
  0.0088263990650034   9   3   7   2
 -0.0014295408182028   9   3   8   7
  0.0196840652792663   9   3   9   3
  0.0004784948842377   9   4   4   1
  0.0000053129078241   9   4   5   4
  0.0088263990650035   9   4   6   2
 -0.0014295408182029   9   4   8   6
  0.0196840652792663   9   4   9   4
 -0.0278933916109238   9   5   1   1
 -0.0402965146420604   9   5   2   2
 -0.0102859881954438   9   5   3   3
 -0.0102859881954438   9   5   4   4
  0.0246033407917551   9   5   5   1
  0.0068327590145689   9   5   5   5
 -0.0240822389880355   9   5   6   6
 -0.0240822389880355   9   5   7   7
 -0.0212844960547220   9   5   8   2
 -0.0131282114491698   9   5   8   8
 -0.0208042939541297   9   5   9   1
  0.0210239402287293   9   5   9   5
  0.0201021555769379   9   6   4   2
  0.0266940479099086   9   6   6   1
 -0.0003547809216947   9   6   6   5
 -0.0095325911323289   9   6   8   4
  0.0216413582625416   9   6   9   6
  0.0201021555769378   9   7   3   2
  0.0266940479099085   9   7   7   1
 -0.0003547809216947   9   7   7   5
 -0.0095325911323288   9   7   8   3
  0.0216413582625416   9   7   9   7
  0.0525153111175655   9   8   2   1
 -0.0324204937408473   9   8   5   2
  0.0285333343168013   9   8   6   4
  0.0285333343168013   9   8   7   3
  0.0203989059420545   9   8   8   1
 -0.0271206975994275   9   8   8   5
  0.0314085533306280   9   8   9   2
  0.0277232460861140   9   8   9   8
  0.4637722174261561   9   9   1   1
  0.4686548185213366   9   9   2   2
  0.4657339652714273   9   9   3   3
  0.4657339652714274   9   9   4   4
  0.0087853524294241   9   9   5   1
  0.5019446719614770   9   9   5   5
  0.4976758978905544   9   9   6   6
  0.4976758978905539   9   9   7   7
  0.0191787145900679   9   9   8   2
  0.5255536342629394   9   9   8   8
  0.0741185832856827   9   9   9   1
 -0.0288669686172621   9   9   9   5
  0.4258845074688164   9   9   9   9
 -0.0071555150577788  10   1   3   1
 -0.0138339150010264  10   1   5   3
 -0.0074611337913028  10   1   7   2
  0.0118225180862628  10   1   8   7
 -0.0155716503177736  10   1   9   3
  0.0171066999840939  10   1  10   1
 -0.0050491324792083  10   2   3   2
 -0.0080821098078780  10   2   7   1
 -0.0038270855486887  10   2   7   5
  0.0062308687660019  10   2   8   3
 -0.0119979190456067  10   2   9   7
  0.0104059053486153  10   2  10   2
 -0.0950655606207546  10   3   1   1
 -0.0859003243278101  10   3   2   2
 -0.1254610183159506  10   3   3   3
 -0.1153620009594183  10   3   4   4
 -0.0385227517521442  10   3   5   1
 -0.1790220955976199  10   3   5   5
 -0.1318481762653576  10   3   6   6
 -0.1467925721525814  10   3   7   7
  0.0063665247674866  10   3   8   2
 -0.1844700460861656  10   3   8   8
 -0.0490927491930494  10   3   9   1
  0.0003589383991510  10   3   9   5
 -0.0640343814967735  10   3   9   9
  0.0756667084441304  10   3  10   3
 -0.0050495086782662  10   4   4   3
 -0.0074721979436120  10   4   7   6
  0.0080118809623723  10   4  10   4
 -0.0326310304497718  10   5   3   1
 -0.0353663020829997  10   5   5   3
 -0.0214355017559447  10   5   7   2
  0.0326402903153376  10   5   8   7
 -0.0011377282901937  10   5   9   3
  0.0075950155603004  10   5  10   1
  0.0268019815725868  10   5  10   5
 -0.0079887533338570  10   6   6   3
 -0.0079887533338570  10   6   7   4
  0.0068424870970545  10   6  10   6
 -0.0606496419133449  10   7   2   1
  0.0150279913452282  10   7   5   2
 -0.0693160608131441  10   7   6   4
 -0.0852935674808581  10   7   7   3
  0.0142688354950766  10   7   8   1
  0.0815230741563409  10   7   8   5
 -0.0458327294498289  10   7   9   2
 -0.0091714849513505  10   7   9   8
  0.0596831598714317  10   7  10   7
  0.0100243770377498  10   8   3   2
  0.0147094782545030  10   8   7   1
  0.0153065023689703  10   8   7   5
 -0.0228683479062370  10   8   8   3
  0.0075307013066137  10   8   9   7
 -0.0058575046230033  10   8  10   2
  0.0177638453775618  10   8  10   8
 -0.0538125937413764  10   9   3   1
 -0.0201447200566393  10   9   5   3
 -0.0473319489464754  10   9   7   2
  0.0269984772596065  10   9   8   7
  0.0105512331936198  10   9   9   3
 -0.0075885711425683  10   9  10   1
  0.0178431649176012  10   9  10   5
  0.0507644411619257  10   9  10   9
  0.4289294050642286  10  10   1   1
  0.4139446175053485  10  10   2   2
  0.4808740398632164  10  10   3   3
  0.4489858883271529  10  10   4   4
  0.0460821270986257  10  10   5   1
  0.5108518542247333  10  10   5   5
  0.4632825978540029  10  10   6   6
  0.4909284159347040  10  10   7   7
 -0.0121212564175389  10  10   8   2
  0.5187274325376126  10  10   8   8
  0.0484117651925854  10  10   9   1
 -0.0059565684685727  10  10   9   5
  0.3922296008124824  10  10   9   9
 -0.0633551253281090  10  10  10   3
  0.4137191460574207  10  10  10  10
 -0.0071555150577788  11   1   4   1
 -0.0138339150010264  11   1   5   4
 -0.0074611337913029  11   1   6   2
  0.0118225180862628  11   1   8   6
 -0.0155716503177737  11   1   9   4
  0.0171066999840939  11   1  11   1
 -0.0050491324792083  11   2   4   2
 -0.0080821098078781  11   2   6   1
 -0.0038270855486887  11   2   6   5
  0.0062308687660019  11   2   8   4
 -0.0119979190456067  11   2   9   6
  0.0104059053486153  11   2  11   2
 -0.0050495086782662  11   3   4   3
 -0.0074721979436120  11   3   7   6
  0.0080118809623723  11   3  10   4
  0.0080118809623723  11   3  11   3
 -0.0950655606207546  11   4   1   1
 -0.0859003243278101  11   4   2   2
 -0.1153620009594181  11   4   3   3
 -0.1254610183159506  11   4   4   4
 -0.0385227517521442  11   4   5   1
 -0.1790220955976197  11   4   5   5
 -0.1467925721525816  11   4   6   6
 -0.1318481762653574  11   4   7   7
  0.0063665247674866  11   4   8   2
 -0.1844700460861654  11   4   8   8
 -0.0490927491930494  11   4   9   1
  0.0003589383991510  11   4   9   5
 -0.0640343814967733  11   4   9   9
  0.0596429465193858  11   4  10   3
 -0.0663563131299902  11   4  10  10
  0.0756667084441304  11   4  11   4
 -0.0326310304497718  11   5   4   1
 -0.0353663020829996  11   5   5   4
 -0.0214355017559446  11   5   6   2
  0.0326402903153376  11   5   8   6
 -0.0011377282901937  11   5   9   4
  0.0075950155603003  11   5  11   1
  0.0268019815725868  11   5  11   5
 -0.0606496419133452  11   6   2   1
  0.0150279913452283  11   6   5   2
 -0.0852935674808585  11   6   6   4
 -0.0693160608131443  11   6   7   3
  0.0142688354950766  11   6   8   1
  0.0815230741563411  11   6   8   5
 -0.0458327294498289  11   6   9   2
 -0.0091714849513504  11   6   9   8
  0.0459981856773228  11   6  10   7
  0.0596831598714319  11   6  11   6
 -0.0079887533338570  11   7   6   3
 -0.0079887533338570  11   7   7   4
  0.0068424870970545  11   7  10   6
  0.0068424870970545  11   7  11   7
  0.0100243770377498  11   8   4   2
  0.0147094782545029  11   8   6   1
  0.0153065023689703  11   8   6   5
 -0.0228683479062370  11   8   8   4
  0.0075307013066137  11   8   9   6
 -0.0058575046230033  11   8  11   2
  0.0177638453775617  11   8  11   8
 -0.0538125937413764  11   9   4   1
 -0.0201447200566393  11   9   5   4
 -0.0473319489464754  11   9   6   2
  0.0269984772596065  11   9   8   6
  0.0105512331936197  11   9   9   4
 -0.0075885711425683  11   9  11   1
  0.0178431649176012  11   9  11   5
  0.0507644411619257  11   9  11   9
  0.0159440757680318  11  10   4   3
  0.0138229090403507  11  10   7   6
  0.0015005939009406  11  10  10   4
  0.0015005939009407  11  10  11   3
  0.0173715898946299  11  10  11  10
  0.4289294050642287  11  11   1   1
  0.4139446175053486  11  11   2   2
  0.4489858883271527  11  11   3   3
  0.4808740398632166  11  11   4   4
  0.0460821270986257  11  11   5   1
  0.5108518542247334  11  11   5   5
  0.4909284159347043  11  11   6   6
  0.4632825978540026  11  11   7   7
 -0.0121212564175388  11  11   8   2
  0.5187274325376127  11  11   8   8
  0.0484117651925854  11  11   9   1
 -0.0059565684685728  11  11   9   5
  0.3922296008124821  11  11   9   9
 -0.0663563131299903  11  11  10   3
  0.3789759662681610  11  11  10  10
 -0.0633551253281088  11  11  11   4
  0.4137191460574207  11  11  11  11
 -0.0184253853878444  12   1   1   1
 -0.0124400815515424  12   1   2   2
 -0.0330083519318705  12   1   3   3
 -0.0330083519318705  12   1   4   4
 -0.0085908662191935  12   1   5   1
 -0.0125314123466521  12   1   5   5
 -0.0290485719245931  12   1   6   6
 -0.0290485719245931  12   1   7   7
  0.0071842215078401  12   1   8   2
 -0.0217862293133093  12   1   8   8
 -0.0033676002528217  12   1   9   1
  0.0068877770307794  12   1   9   5
 -0.0187394352419132  12   1   9   9
  0.0018996734265574  12   1  10   3
 -0.0222043505756776  12   1  10  10
  0.0018996734265574  12   1  11   4
 -0.0222043505756776  12   1  11  11
  0.0198887608826105  12   1  12   1
  0.0111858645363870  12   2   2   1
 -0.0098004896294197  12   2   5   2
 -0.0039007813130165  12   2   6   4
 -0.0039007813130165  12   2   7   3
  0.0059862379768766  12   2   8   1
  0.0033061243752308  12   2   8   5
 -0.0090485527557578  12   2   9   2
 -0.0002597926250010  12   2   9   8
  0.0078640127860291  12   2  10   7
  0.0078640127860291  12   2  11   6
  0.0166594218435233  12   2  12   2
 -0.0253472065815927  12   3   3   1
 -0.0078779180944242  12   3   5   3
 -0.0196667202998715  12   3   7   2
  0.0100557084993528  12   3   8   7
  0.0095315867016182  12   3   9   3
 -0.0050681316044565  12   3  10   1
  0.0020210055939233  12   3  10   5
  0.0216482861598869  12   3  10   9
  0.0188689034509938  12   3  12   3
 -0.0253472065815927  12   4   4   1
 -0.0078779180944242  12   4   5   4
 -0.0196667202998715  12   4   6   2
  0.0100557084993528  12   4   8   6
  0.0095315867016182  12   4   9   4
 -0.0050681316044565  12   4  11   1
  0.0020210055939232  12   4  11   5
  0.0216482861598869  12   4  11   9
  0.0188689034509938  12   4  12   4
  0.0595466132038492  12   5   1   1
  0.0464785987398573  12   5   2   2
  0.0858626550003770  12   5   3   3
  0.0858626550003770  12   5   4   4
  0.0441018440391016  12   5   5   1
  0.1671145676306543  12   5   5   5
  0.0916447173166627  12   5   6   6
  0.0916447173166626  12   5   7   7
 -0.0076550925191048  12   5   8   2
  0.1544755446609148  12   5   8   8
  0.0317916377325835  12   5   9   1
  0.0067782521105214  12   5   9   5
  0.0418074457140630  12   5   9   9
 -0.0480086353111908  12   5  10   3
  0.0531265664349762  12   5  10  10
 -0.0480086353111908  12   5  11   4
  0.0531265664349762  12   5  11  11
 -0.0025409868353942  12   5  12   1
  0.0578053059674598  12   5  12   5
 -0.0065964948247726  12   6   4   2
 -0.0075275779022138  12   6   6   1
  0.0024667399063615  12   6   6   5
  0.0009591250808228  12   6   8   4
 -0.0030112225257795  12   6   9   6
  0.0015941936486763  12   6  11   2
  0.0026082605769331  12   6  11   8
  0.0045406902083774  12   6  12   6
 -0.0065964948247726  12   7   3   2
 -0.0075275779022137  12   7   7   1
  0.0024667399063615  12   7   7   5
  0.0009591250808228  12   7   8   3
 -0.0030112225257795  12   7   9   7
  0.0015941936486763  12   7  10   2
  0.0026082605769331  12   7  10   8
  0.0045406902083774  12   7  12   7
 -0.0184778783631419  12   8   2   1
  0.0047454775976075  12   8   5   2
 -0.0283567353908836  12   8   6   4
 -0.0283567353908836  12   8   7   3
  0.0067683833427961  12   8   8   1
  0.0529335346670780  12   8   8   5
 -0.0202746646438593  12   8   9   2
 -0.0044022963046090  12   8   9   8
  0.0247896835465949  12   8  10   7
  0.0247896835465949  12   8  11   6
  0.0046595198994368  12   8  12   2
  0.0230147565129987  12   8  12   8
  0.0136075932711548  12   9   1   1
 -0.0017117203566601  12   9   2   2
  0.0400170711087651  12   9   3   3
  0.0400170711087651  12   9   4   4
  0.0271780020205504  12   9   5   1
  0.0406551272645555  12   9   5   5
  0.0224115143398207  12   9   6   6
  0.0224115143398207  12   9   7   7
 -0.0180258850304164  12   9   8   2
  0.0311238662210426  12   9   8   8
 -0.0078705538169958  12   9   9   1
  0.0044323572222599  12   9   9   5
  0.0111109230512957  12   9   9   9
 -0.0010086338306493  12   9  10   3
  0.0307393391357236  12   9  10  10
 -0.0010086338306493  12   9  11   4
  0.0307393391357237  12   9  11  11
 -0.0184966011591759  12   9  12   1
  0.0117869174046326  12   9  12   5
  0.0315625430496002  12   9  12   9
 -0.0207291948159678  12  10   3   1
 -0.0177043358668728  12  10   5   3
 -0.0109478027703297  12  10   7   2
  0.0168545013242016  12  10   8   7
  0.0094184000158538  12  10   9   3
 -0.0030661952733281  12  10  10   1
  0.0100196827085040  12  10  10   5
  0.0200201657365549  12  10  10   9
  0.0133732769673770  12  10  12   3
  0.0198443146388377  12  10  12  10
 -0.0207291948159679  12  11   4   1
 -0.0177043358668729  12  11   5   4
 -0.0109478027703297  12  11   6   2
  0.0168545013242016  12  11   8   6
  0.0094184000158538  12  11   9   4
 -0.0030661952733281  12  11  11   1
  0.0100196827085040  12  11  11   5
  0.0200201657365550  12  11  11   9
  0.0133732769673770  12  11  12   4
  0.0198443146388377  12  11  12  11
  0.4001352404501350  12  12   1   1
  0.3922854444318249  12  12   2   2
  0.4151209013989562  12  12   3   3
  0.4151209013989564  12  12   4   4
  0.0271787963734460  12  12   5   1
  0.4624832571015162  12  12   5   5
  0.4197556804817507  12  12   6   6
  0.4197556804817505  12  12   7   7
 -0.0009917441235723  12  12   8   2
  0.4573015438929453  12  12   8   8
  0.0317890755021059  12  12   9   1
 -0.0038506748354780  12  12   9   5
  0.3688069753367862  12  12   9   9
 -0.0442688186765389  12  12  10   3
  0.3586021036405268  12  12  10  10
 -0.0442688186765389  12  12  11   4
  0.3586021036405269  12  12  11  11
 -0.0051262550571355  12  12  12   1
  0.0326135021819810  12  12  12   5
  0.0120709914534623  12  12  12   9
  0.3623010263892691  12  12  12  12
  0.0011566828358806  13   1   4   2
 -0.0006268555783747  13   1   6   1
 -0.0040113640959161  13   1   6   5
  0.0029714111613732  13   1   8   4
 -0.0094668192210114  13   1   9   6
  0.0102764126558470  13   1  11   2
 -0.0047224292382718  13   1  11   8
  0.0006540247783174  13   1  12   6
  0.0114773326384106  13   1  13   1
  0.0067524563945305  13   2   4   1
 -0.0014578511394962  13   2   5   4
  0.0038321291247007  13   2   6   2
 -0.0005600111007714  13   2   8   6
 -0.0130061110412820  13   2   9   4
  0.0132235056369056  13   2  11   1
 -0.0028895198168287  13   2  11   5
 -0.0141284479298953  13   2  11   9
 -0.0042078881920274  13   2  12   4
 -0.0029465329807387  13   2  12  11
  0.0148764596178005  13   2  13   2
 -0.0025753734934138  13   3   6   3
 -0.0025753734934137  13   3   7   4
  0.0041772255193791  13   3  10   6
  0.0041772255193791  13   3  11   7
  0.0034399909666817  13   3  13   3
 -0.0118291236802920  13   4   2   1
 -0.0000774284438571  13   4   5   2
 -0.0277102414800245  13   4   6   4
 -0.0225594944931969  13   4   7   3
  0.0062395702957000  13   4   8   1
  0.0329260560322305  13   4   8   5
 -0.0231699898786949  13   4   9   2
 -0.0008236251325772  13   4   9   8
  0.0223211547536006  13   4  10   7
  0.0306756057923589  13   4  11   6
  0.0073466994646056  13   4  12   2
  0.0134798738167255  13   4  12   8
  0.0215743387149049  13   4  13   4
 -0.0063157786003137  13   5   4   2
 -0.0079735150375339  13   5   6   1
 -0.0050091844962059  13   5   6   5
  0.0094999673421935  13   5   8   4
 -0.0000161668563943  13   5   9   6
 -0.0019320639390670  13   5  11   2
 -0.0064197880613859  13   5  11   8
 -0.0017632018172095  13   5  12   6
 -0.0033195018794371  13   5  13   1
  0.0049611613547087  13   5  13   5
 -0.0669625167027860  13   6   1   1
 -0.0634585591474139  13   6   2   2
 -0.0789096625695003  13   6   3   3
 -0.0851514970456733  13   6   4   4
 -0.0202736815971089  13   6   5   1
 -0.1128409767622432  13   6   5   5
 -0.1068345118017898  13   6   6   6
 -0.0953083374348294  13   6   7   7
  0.0006278774632783  13   6   8   2
 -0.1268226874537335  13   6   8   8
 -0.0384329692810972  13   6   9   1
  0.0055444196098894  13   6   9   5
 -0.0495164172005609  13   6   9   9
  0.0408663574053417  13   6  10   3
 -0.0472285294031892  13   6  10  10
  0.0507596424600533  13   6  11   4
 -0.0467977070574785  13   6  11  11
  0.0052581755798617  13   6  12   1
 -0.0314732436224168  13   6  12   5
 -0.0020035391712937  13   6  12   9
 -0.0291110074825822  13   6  12  12
  0.0389999773418743  13   6  13   6
 -0.0031209172380865  13   7   4   3
 -0.0057630871834801  13   7   7   6
  0.0049466425273558  13   7  10   4
  0.0049466425273558  13   7  11   3
  0.0002154111728553  13   7  11  10
  0.0040267695508267  13   7  13   7
  0.0080396913095495  13   8   4   1
  0.0135752261987154  13   8   5   4
  0.0049168530091128  13   8   6   2
 -0.0151019730915640  13   8   8   6
  0.0042397282266861  13   8   9   4
 -0.0066573238327717  13   8  11   1
 -0.0098804181087461  13   8  11   5
 -0.0006218482181002  13   8  11   9
  0.0024684115669113  13   8  12   4
 -0.0019361720569344  13   8  12  11
 -0.0028478388821325  13   8  13   2
  0.0065780539182484  13   8  13   8
 -0.0243073680455601  13   9   4   2
 -0.0283969717118610  13   9   6   1
  0.0028031094705946  13   9   6   5
  0.0106746441930082  13   9   8   4
 -0.0058171831621425  13   9   9   6
 -0.0049135811930218  13   9  11   2
 -0.0023544320598288  13   9  11   8
  0.0027255590225166  13   9  12   6
 -0.0103666479184816  13   9  13   1
  0.0071950239685502  13   9  13   5
  0.0277815468280854  13   9  13   9
  0.0073521968085492  13  10   6   3
  0.0073521968085492  13  10   7   4
 -0.0008796430584876  13  10  10   6
 -0.0008796430584876  13  10  11   7
  0.0021878907064136  13  10  13   3
  0.0088296027977752  13  10  13  10
  0.0912741983525599  13  11   2   1
 -0.0349753575162449  13  11   5   2
  0.0875959179573815  13  11   6   4
  0.0728915243402832  13  11   7   3
 -0.0059666857947603  13  11   8   1
 -0.0661517993802881  13  11   8   5
  0.0243577658606785  13  11   9   2
  0.0186669089838183  13  11   9   8
 -0.0255521274223077  13  11  10   7
 -0.0273114135392830  13  11  11   6
  0.0086258368035832  13  11  12   2
 -0.0101528705828382  13  11  12   8
  0.0043703324386287  13  11  13   4
  0.0724558691487730  13  11  13  11
  0.0041481070517334  13  12   4   2
  0.0044609741088700  13  12   6   1
 -0.0046255421270403  13  12   6   5
  0.0029918703291689  13  12   8   4
  0.0006819334247297  13  12   9   6
  0.0031277243364753  13  12  11   2
 -0.0016451491306374  13  12  11   8
  0.0019275947163769  13  12  12   6
  0.0050570351174871  13  12  13   1
 -0.0026300578440433  13  12  13   5
 -0.0084188123673608  13  12  13   9
  0.0104859614026562  13  12  13  12
  0.3665988502555638  13  13   1   1
  0.3658807754039400  13  13   2   2
  0.3631814441752237  13  13   3   3
  0.3826567187714345  13  13   4   4
  0.0099852787034087  13  13   5   1
  0.3886783302840935  13  13   5   5
  0.3959259617077052  13  13   6   6
  0.3775015428110510  13  13   7   7
  0.0001969281172064  13  13   8   2
  0.3973683015393721  13  13   8   8
  0.0263988425047832  13  13   9   1
 -0.0060185805988502  13  13   9   5
  0.3455921659794228  13  13   9   9
 -0.0335843570472539  13  13  10   3
  0.3238637944744777  13  13  10  10
 -0.0265696511121158  13  13  11   4
  0.3509733516676675  13  13  11  11
 -0.0071008994795399  13  13  12   1
  0.0206218119870024  13  13  12   5
  0.0068256298066852  13  13  12   9
  0.3213430762454400  13  13  12  12
 -0.0178587345043422  13  13  13   6
  0.3346290200394838  13  13  13  13
  0.0011566828358806  14   1   3   2
 -0.0006268555783747  14   1   7   1
 -0.0040113640959161  14   1   7   5
  0.0029714111613733  14   1   8   3
 -0.0094668192210114  14   1   9   7
  0.0102764126558470  14   1  10   2
 -0.0047224292382718  14   1  10   8
  0.0006540247783174  14   1  12   7
  0.0114773326384106  14   1  14   1
  0.0067524563945304  14   2   3   1
 -0.0014578511394963  14   2   5   3
  0.0038321291247007  14   2   7   2
 -0.0005600111007714  14   2   8   7
 -0.0130061110412820  14   2   9   3
  0.0132235056369056  14   2  10   1
 -0.0028895198168287  14   2  10   5
 -0.0141284479298953  14   2  10   9
 -0.0042078881920274  14   2  12   3
 -0.0029465329807387  14   2  12  10
  0.0148764596178005  14   2  14   2
 -0.0118291236802921  14   3   2   1
 -0.0000774284438571  14   3   5   2
 -0.0225594944931970  14   3   6   4
 -0.0277102414800245  14   3   7   3
  0.0062395702957000  14   3   8   1
  0.0329260560322306  14   3   8   5
 -0.0231699898786949  14   3   9   2
 -0.0008236251325772  14   3   9   8
  0.0306756057923590  14   3  10   7
  0.0223211547536007  14   3  11   6
  0.0073466994646056  14   3  12   2
  0.0134798738167254  14   3  12   8
  0.0146943567815413  14   3  13   4
 -0.0000054489741984  14   3  13  11
  0.0215743387149049  14   3  14   3
 -0.0025753734934138  14   4   6   3
 -0.0025753734934138  14   4   7   4
  0.0041772255193791  14   4  10   6
  0.0041772255193791  14   4  11   7
  0.0034399909666817  14   4  13   3
  0.0021878907064136  14   4  13  10
  0.0034399909666817  14   4  14   4
 -0.0063157786003137  14   5   3   2
 -0.0079735150375339  14   5   7   1
 -0.0050091844962059  14   5   7   5
  0.0094999673421935  14   5   8   3
 -0.0000161668563942  14   5   9   7
 -0.0019320639390670  14   5  10   2
 -0.0064197880613859  14   5  10   8
 -0.0017632018172095  14   5  12   7
 -0.0033195018794371  14   5  14   1
  0.0049611613547088  14   5  14   5
 -0.0031209172380865  14   6   4   3
 -0.0057630871834802  14   6   7   6
  0.0049466425273558  14   6  10   4
  0.0049466425273558  14   6  11   3
  0.0002154111728553  14   6  11  10
  0.0040267695508267  14   6  13   7
  0.0040267695508267  14   6  14   6
 -0.0669625167027859  14   7   1   1
 -0.0634585591474138  14   7   2   2
 -0.0851514970456732  14   7   3   3
 -0.0789096625695002  14   7   4   4
 -0.0202736815971089  14   7   5   1
 -0.1128409767622431  14   7   5   5
 -0.0953083374348294  14   7   6   6
 -0.1068345118017895  14   7   7   7
  0.0006278774632783  14   7   8   2
 -0.1268226874537333  14   7   8   8
 -0.0384329692810972  14   7   9   1
  0.0055444196098894  14   7   9   5
 -0.0495164172005609  14   7   9   9
  0.0507596424600533  14   7  10   3
 -0.0467977070574783  14   7  10  10
  0.0408663574053417  14   7  11   4
 -0.0472285294031890  14   7  11  11
  0.0052581755798617  14   7  12   1
 -0.0314732436224168  14   7  12   5
 -0.0020035391712937  14   7  12   9
 -0.0291110074825820  14   7  12  12
  0.0309464382402211  14   7  13   6
 -0.0229811974230428  14   7  13  13
  0.0389999773418743  14   7  14   7
  0.0080396913095496  14   8   3   1
  0.0135752261987155  14   8   5   3
  0.0049168530091128  14   8   7   2
 -0.0151019730915640  14   8   8   7
  0.0042397282266860  14   8   9   3
 -0.0066573238327717  14   8  10   1
 -0.0098804181087461  14   8  10   5
 -0.0006218482181002  14   8  10   9
  0.0024684115669113  14   8  12   3
 -0.0019361720569344  14   8  12  10
 -0.0028478388821325  14   8  14   2
  0.0065780539182484  14   8  14   8
 -0.0243073680455601  14   9   3   2
 -0.0283969717118610  14   9   7   1
  0.0028031094705946  14   9   7   5
  0.0106746441930082  14   9   8   3
 -0.0058171831621424  14   9   9   7
 -0.0049135811930218  14   9  10   2
 -0.0023544320598288  14   9  10   8
  0.0027255590225166  14   9  12   7
 -0.0103666479184816  14   9  14   1
  0.0071950239685502  14   9  14   5
  0.0277815468280854  14   9  14   9
  0.0912741983525599  14  10   2   1
 -0.0349753575162449  14  10   5   2
  0.0728915243402832  14  10   6   4
  0.0875959179573815  14  10   7   3
 -0.0059666857947603  14  10   8   1
 -0.0661517993802882  14  10   8   5
  0.0243577658606785  14  10   9   2
  0.0186669089838183  14  10   9   8
 -0.0273114135392828  14  10  10   7
 -0.0255521274223079  14  10  11   6
  0.0086258368035833  14  10  12   2
 -0.0101528705828381  14  10  12   8
 -0.0000054489741985  14  10  13   4
  0.0547966635532228  14  10  13  11
  0.0043703324386287  14  10  14   3
  0.0724558691487731  14  10  14  10
  0.0073521968085492  14  11   6   3
  0.0073521968085492  14  11   7   4
 -0.0008796430584876  14  11  10   6
 -0.0008796430584876  14  11  11   7
  0.0021878907064136  14  11  13   3
  0.0088296027977752  14  11  13  10
  0.0021878907064136  14  11  14   4
  0.0088296027977752  14  11  14  11
  0.0041481070517334  14  12   3   2
  0.0044609741088700  14  12   7   1
 -0.0046255421270403  14  12   7   5
  0.0029918703291689  14  12   8   3
  0.0006819334247297  14  12   9   7
  0.0031277243364753  14  12  10   2
 -0.0016451491306374  14  12  10   8