 &FCI NORB=  26,NELEC=  10,MS2=   0,
  ORBSYM=1,5,3,2,1,6,7,5,1,3,2,1,6,7,5,1,4,5,3,2,8,5,1,6,7,5,
  ISYM=   1,
  ITGENERAL=1,
 &END
 -1.1138951473861409   1   1   0   0
 -0.4711064054810584   1   5   0   0
  0.0007499626476705   1   9   0   0
  0.0000005755806792   1  12   0   0
  0.0000001191595245   1  16   0   0
 -0.0000001658390718   1  23   0   0
 -0.7205907633294477   2   2   0   0
 -0.0038732316409571   2   8   0   0
  0.0000003458782477   2  15   0   0
 -0.0000003578818987   2  18   0   0
 -0.0000001590328537   2  22   0   0
 -0.0000013122044224   2  26   0   0
 -0.6765733359215536   3   3   0   0
  0.0010772821138791   3  10   0   0
 -0.0000006358695277   3  19   0   0
 -0.6712097518927276   4   4   0   0
  0.0139739206785787   4  11   0   0
 -0.0239485635804390   4  20   0   0
 -0.4711064054810581   5   1   0   0
 -1.0905581201792323   5   5   0   0
  0.0032709831127217   5   9   0   0
 -0.0020556264766811   5  12   0   0
  0.0026042917344069   5  16   0   0
 -0.0045467489157488   5  23   0   0
  0.4692058257881070   6   6   0   0
 -0.3509765514524051   6  13   0   0
  0.2602653585075115   6  24   0   0
  0.6184732786532613   7   7   0   0
 -0.3885675377691082   7  14   0   0
  0.5336841713873363   7  25   0   0
 -0.0038732316409570   8   2   0   0
  1.9001553339080581   8   8   0   0
  0.1805631024817939   8  15   0   0
  0.2623213526090247   8  18   0   0
 -0.0269872438589127   8  22   0   0
 -0.8244751883586584   8  26   0   0
  0.0007499626476704   9   1   0   0
  0.0032709831127217   9   5   0   0
  1.3141601926372313   9   9   0   0
 -0.0715661027904960   9  12   0   0
  0.4087452774815848   9  16   0   0
 -0.7504016493529838   9  23   0   0
  0.0010772821138790  10   3   0   0
  1.5688231388142966  10  10   0   0
 -0.6039995066440159  10  19   0   0
  0.0139739206785787  11   4   0   0
  1.2199766016126814  11  11   0   0
 -0.5770215563346006  11  20   0   0
  0.0000005755806794  12   1   0   0
 -0.0020556264766812  12   5   0   0
 -0.0715661027904960  12   9   0   0
  1.0032118952020646  12  12   0   0
 -0.3509765514524052  13   6   0   0
  0.9044051609161424  13  13   0   0
 -0.3885675377691080  14   7   0   0
  0.8539753980154451  14  14   0   0
  0.0000003458782463  15   2   0   0
  0.1805631024817898  15   8   0   0
  0.6572889546260832  15  15   0   0
  0.0000000000001314  15  18   0   0
  0.0000001191595247  16   1   0   0
  0.0026042917344069  16   5   0   0
  0.4087452774815848  16   9   0   0
  1.5556078992619231  16  16   0   0
  1.7177867110429272  17  17   0   0
 -0.0000003578819012  18   2   0   0
  0.2623213526090202  18   8   0   0
  0.0000000000001213  18  15   0   0
  1.6427238346363349  18  18   0   0
  0.0000000000001168  18  26   0   0
 -0.0000006358695278  19   3   0   0
 -0.6039995066440159  19  10   0   0
  1.3150438934934530  19  19   0   0
 -0.0239485635804391  20   4   0   0
 -0.5770215563346006  20  11   0   0
  1.6610190027390217  20  20   0   0
  2.4106121882423355  21  21   0   0
 -0.0000001590328537  22   2   0   0
 -0.0269872438589128  22   8   0   0
  2.4098930005349199  22  22   0   0
 -0.0000001658390717  23   1   0   0
 -0.0045467489157489  23   5   0   0
 -0.7504016493529838  23   9   0   0
  2.6053232111627254  23  23   0   0
  0.2602653585075115  24   6   0   0
  3.1439951617837103  24  24   0   0
  0.5336841713873363  25   7   0   0
  3.0555956301350347  25  25   0   0
 -0.0000013122044241  26   2   0   0
 -0.8244751883586611  26   8   0   0
  0.0000000000001224  26  18   0   0
  3.4842552790704793  26  26   0   0
-75.5777020772057000   0   0   0   0
