 &FCI NORB=  10,NELEC=  14,MS2=   0,
  ORBSYM=1,5,1,5,3,2,1,6,7,5,
  ISYM=   1,
  IUHF=1,
  IGENERAL=1,
 &END
      2.3068656644479084   1   1   1   1
     -0.1914404665982650   1   1   1   3
      0.0835840775036002   1   1   1   7
      2.3063511607359843   1   1   2   2
     -0.1915180728904324   1   1   2   4
     -0.1312665818544436   1   1   2  10
     -0.1914404665982650   1   1   3   1
      0.7868840776029881   1   1   3   3
      0.0655012164631069   1   1   3   7
     -0.1915180728904324   1   1   4   2
      0.6671458921492035   1   1   4   4
      0.0491703695651632   1   1   4  10
      0.6879790991819537   1   1   5   5
      0.6879790991819537   1   1   6   6
      0.0835840775036002   1   1   7   1
      0.0655012164631069   1   1   7   3
      0.6854056843138795   1   1   7   7
      0.7276833321892719   1   1   8   8
      0.7276833321892719   1   1   9   9
     -0.1312665818544436   1   1  10   2
      0.0491703695651632   1   1  10   4
      0.8958031735773894   1   1  10  10
      1.8249339818179893   1   2   1   2
     -0.1846139501158440   1   2   1   4
     -0.1496126043659943   1   2   1  10
      1.8249339818179893   1   2   2   1
     -0.1983666215420871   1   2   2   3
      0.0685565934541073   1   2   2   7
     -0.1983666215420871   1   2   3   2
      0.1721198434066936   1   2   3   4
      0.2263328771848499   1   2   3  10
     -0.1846139501158440   1   2   4   1
      0.1721198434066936   1   2   4   3
     -0.2521981419460383   1   2   4   7
      0.2753528636452112   1   2   5   9
      0.2753528636452112   1   2   6   8
      0.0685565934541073   1   2   7   2
     -0.2521981419460383   1   2   7   4
      0.1933359536709665   1   2   7  10
      0.2753528636452112   1   2   8   6
      0.2753528636452112   1   2   9   5
     -0.1496126043659943   1   2  10   1
      0.2263328771848499   1   2  10   3
      0.1933359536709665   1   2  10   7
     -0.1914404665982649   1   3   1   1
      0.0309482307896134   1   3   1   3
     -0.0065652065105132   1   3   1   7
     -0.1913035533057048   1   3   2   2
      0.0258190185987401   1   3   2   4
      0.0280121734064893   1   3   2  10
      0.0309482307896134   1   3   3   1
      0.0020222979850915   1   3   3   3
      0.0072351540891540   1   3   3   7
      0.0258190185987401   1   3   4   2
     -0.0125636523694705   1   3   4   4
      0.0028764193325744   1   3   4  10
     -0.0015138854750615   1   3   5   5
     -0.0015138854750615   1   3   6   6
     -0.0065652065105132   1   3   7   1
      0.0072351540891540   1   3   7   3
     -0.0089761290563318   1   3   7   7
     -0.0059488162170643   1   3   8   8
     -0.0059488162170643   1   3   9   9
      0.0280121734064893   1   3  10   2
      0.0028764193325744   1   3  10   4
     -0.0055163682876748   1   3  10  10
     -0.1846139501158441   1   4   1   2
      0.0287155847866985   1   4   1   4
      0.0148212030601175   1   4   1  10
     -0.1846139501158441   1   4   2   1
      0.0260148600615735   1   4   2   3
     -0.0147837545202593   1   4   2   7
      0.0260148600615735   1   4   3   2
     -0.0048287136178826   1   4   3   4
     -0.0114483135744942   1   4   3  10
      0.0287155847866985   1   4   4   1
     -0.0048287136178826   1   4   4   3
     -0.0023235595656652   1   4   4   7
     -0.0027461984092946   1   4   5   9
     -0.0027461984092946   1   4   6   8
     -0.0147837545202593   1   4   7   2
     -0.0023235595656652   1   4   7   4
     -0.0017083006038533   1   4   7  10
     -0.0027461984092946   1   4   8   6
     -0.0027461984092946   1   4   9   5
      0.0148212030601175   1   4  10   1
     -0.0114483135744942   1   4  10   3
     -0.0017083006038533   1   4  10   7
      0.0097709748829623   1   5   1   5
      0.0118877268304340   1   5   2   9
      0.0166207301027021   1   5   3   5
      0.0156085856231960   1   5   4   9
      0.0097709748829623   1   5   5   1
      0.0166207301027021   1   5   5   3
     -0.0048610440316598   1   5   5   7
     -0.0048610440316598   1   5   7   5
      0.0118877268304340   1   5   9   2
      0.0156085856231960   1   5   9   4
      0.0111174726038261   1   5   9  10
      0.0111174726038261   1   5  10   9
      0.0097709748829623   1   6   1   6
      0.0118877268304340   1   6   2   8
      0.0166207301027021   1   6   3   6
      0.0156085856231960   1   6   4   8
      0.0097709748829623   1   6   6   1
      0.0166207301027021   1   6   6   3
     -0.0048610440316598   1   6   6   7
     -0.0048610440316598   1   6   7   6
      0.0118877268304340   1   6   8   2
      0.0156085856231960   1   6   8   4
      0.0111174726038261   1   6   8  10
      0.0111174726038261   1   6  10   8
      0.0835840775036002   1   7   1   1
     -0.0065652065105132   1   7   1   3
      0.0142698628277051   1   7   1   7
      0.0836430878927596   1   7   2   2
     -0.0152157617156938   1   7   2   4
      0.0061211971161334   1   7   2  10
     -0.0065652065105132   1   7   3   1
      0.0254970389618475   1   7   3   3
      0.0123610459111035   1   7   3   7
     -0.0152157617156938   1   7   4   2
     -0.0042069788937494   1   7   4   4
      0.0122298230150511   1   7   4  10
      0.0089481409783174   1   7   5   5
      0.0089481409783174   1   7   6   6
      0.0142698628277051   1   7   7   1
      0.0123610459111035   1   7   7   3
     -0.0027000281030640   1   7   7   7
      0.0053577665102912   1   7   8   8
      0.0053577665102912   1   7   9   9
      0.0061211971161334   1   7  10   2
      0.0122298230150511   1   7  10   4
      0.0228800525236477   1   7  10  10
      0.0138173617685809   1   8   1   8
      0.0113100667547752   1   8   2   6
      0.0134411058431965   1   8   3   8
      0.0134691761876448   1   8   4   6
      0.0113100667547752   1   8   6   2
      0.0134691761876448   1   8   6   4
      0.0098885596925108   1   8   6  10
     -0.0086087414709991   1   8   7   8
      0.0138173617685809   1   8   8   1
      0.0134411058431965   1   8   8   3
     -0.0086087414709991   1   8   8   7
      0.0098885596925108   1   8  10   6
      0.0138173617685809   1   9   1   9
      0.0113100667547752   1   9   2   5
      0.0134411058431965   1   9   3   9
      0.0134691761876448   1   9   4   5
      0.0113100667547752   1   9   5   2
      0.0134691761876448   1   9   5   4
      0.0098885596925108   1   9   5  10
     -0.0086087414709991   1   9   7   9
      0.0138173617685809   1   9   9   1
      0.0134411058431965   1   9   9   3
     -0.0086087414709991   1   9   9   7
      0.0098885596925108   1   9  10   5
     -0.1496126043659942   1  10   1   2
      0.0148212030601174   1  10   1   4
      0.0359352673960016   1  10   1  10
     -0.1496126043659942   1  10   2   1
      0.0275389835720957   1  10   2   3
      0.0050309140035550   1  10   2   7
      0.0275389835720957   1  10   3   2
     -0.0081345324411005   1  10   3   4
      0.0059622326224018   1  10   3  10
      0.0148212030601174   1  10   4   1
     -0.0081345324411005   1  10   4   3
      0.0262451133782312   1  10   4   7
     -0.0099113090127848   1  10   5   9
     -0.0099113090127848   1  10   6   8
      0.0050309140035550   1  10   7   2
      0.0262451133782312   1  10   7   4
     -0.0095429778967744   1  10   7  10
     -0.0099113090127848   1  10   8   6
     -0.0099113090127848   1  10   9   5
      0.0359352673960016   1  10  10   1
      0.0059622326224018   1  10  10   3
     -0.0095429778967744   1  10  10   7
      1.8249339818179893   2   1   1   2
     -0.1846139501158440   2   1   1   4
     -0.1496126043659943   2   1   1  10
      1.8249339818179893   2   1   2   1
     -0.1983666215420871   2   1   2   3
      0.0685565934541073   2   1   2   7
     -0.1983666215420871   2   1   3   2
      0.1721198434066936   2   1   3   4
      0.2263328771848499   2   1   3  10
     -0.1846139501158440   2   1   4   1
      0.1721198434066936   2   1   4   3
     -0.2521981419460383   2   1   4   7
      0.2753528636452112   2   1   5   9
      0.2753528636452112   2   1   6   8
      0.0685565934541073   2   1   7   2
     -0.2521981419460383   2   1   7   4
      0.1933359536709665   2   1   7  10
      0.2753528636452112   2   1   8   6
      0.2753528636452112   2   1   9   5
     -0.1496126043659943   2   1  10   1
      0.2263328771848499   2   1  10   3
      0.1933359536709665   2   1  10   7
      2.3063511607359835   2   2   1   1
     -0.1913035533057047   2   2   1   3
      0.0836430878927596   2   2   1   7
      2.3058381063782405   2   2   2   2
     -0.1914693443777366   2   2   2   4
     -0.1310504915869674   2   2   2  10
     -0.1913035533057047   2   2   3   1
      0.7869699869623663   2   2   3   3
      0.0655591199707564   2   2   3   7
     -0.1914693443777366   2   2   4   2
      0.6670820515696624   2   2   4   4
      0.0492469366883173   2   2   4  10
      0.6880230406586181   2   2   5   5
      0.6880230406586181   2   2   6   6
      0.0836430878927596   2   2   7   1
      0.0655591199707564   2   2   7   3
      0.6853423268082708   2   2   7   7
      0.7277125780396640   2   2   8   8
      0.7277125780396640   2   2   9   9
     -0.1310504915869674   2   2  10   2
      0.0492469366883173   2   2  10   4
      0.8958777131367074   2   2  10  10
     -0.1983666215420871   2   3   1   2
      0.0260148600615735   2   3   1   4
      0.0275389835720958   2   3   1  10
     -0.1983666215420871   2   3   2   1
      0.0306870405687420   2   3   2   3
     -0.0070242229985144   2   3   2   7
      0.0306870405687420   2   3   3   2
     -0.0083001343067218   2   3   3   4
     -0.0049951236177156   2   3   3  10
      0.0260148600615735   2   3   4   1
     -0.0083001343067218   2   3   4   3
      0.0138780026893184   2   3   4   7
     -0.0088403176516692   2   3   5   9
     -0.0088403176516692   2   3   6   8
     -0.0070242229985144   2   3   7   2
      0.0138780026893184   2   3   7   4
     -0.0068262963241533   2   3   7  10
     -0.0088403176516692   2   3   8   6
     -0.0088403176516692   2   3   9   5
      0.0275389835720958   2   3  10   1
     -0.0049951236177156   2   3  10   3
     -0.0068262963241533   2   3  10   7
     -0.1915180728904323   2   4   1   1
      0.0258190185987401   2   4   1   3
     -0.0152157617156938   2   4   1   7
     -0.1914693443777367   2   4   2   2
      0.0289114823976206   2   4   2   4
      0.0142909409682509   2   4   2  10
      0.0258190185987401   2   4   3   1
     -0.0182719141876170   2   4   3   3
     -0.0047751805135661   2   4   3   7
      0.0289114823976206   2   4   4   2
     -0.0049101511309765   2   4   4   4
     -0.0074621473184370   2   4   4  10
     -0.0077286781258514   2   4   5   5
     -0.0077286781258514   2   4   6   6
     -0.0152157617156938   2   4   7   1
     -0.0047751805135661   2   4   7   3
     -0.0037242649402175   2   4   7   7
     -0.0077432527464363   2   4   8   8
     -0.0077432527464363   2   4   9   9
      0.0142909409682509   2   4  10   2
     -0.0074621473184370   2   4  10   4
     -0.0209471183540492   2   4  10  10
      0.0113100667547752   2   5   1   9
      0.0092697615524470   2   5   2   5
      0.0114368254326912   2   5   3   9
      0.0112814228139245   2   5   4   5
      0.0092697615524470   2   5   5   2
      0.0112814228139245   2   5   5   4
      0.0085936714828352   2   5   5  10
     -0.0070266882478052   2   5   7   9
      0.0113100667547752   2   5   9   1
      0.0114368254326912   2   5   9   3
     -0.0070266882478052   2   5   9   7
      0.0085936714828352   2   5  10   5
      0.0113100667547752   2   6   1   8
      0.0092697615524470   2   6   2   6
      0.0114368254326912   2   6   3   8
      0.0112814228139245   2   6   4   6
      0.0092697615524470   2   6   6   2
      0.0112814228139245   2   6   6   4
      0.0085936714828352   2   6   6  10
     -0.0070266882478052   2   6   7   8
      0.0113100667547752   2   6   8   1
      0.0114368254326912   2   6   8   3
     -0.0070266882478052   2   6   8   7
      0.0085936714828352   2   6  10   6
      0.0685565934541073   2   7   1   2
     -0.0147837545202593   2   7   1   4
      0.0050309140035550   2   7   1  10
      0.0685565934541073   2   7   2   1
     -0.0070242229985144   2   7   2   3
      0.0133156519881212   2   7   2   7
     -0.0070242229985144   2   7   3   2
     -0.0007778777748208   2   7   3   4
      0.0109234140588352   2   7   3  10
     -0.0147837545202593   2   7   4   1
     -0.0007778777748208   2   7   4   3
      0.0148721316446300   2   7   4   7
     -0.0037820846331443   2   7   5   9
     -0.0037820846331443   2   7   6   8
      0.0133156519881212   2   7   7   2
      0.0148721316446300   2   7   7   4
     -0.0034049139881159   2   7   7  10
     -0.0037820846331443   2   7   8   6
     -0.0037820846331443   2   7   9   5
      0.0050309140035550   2   7  10   1
      0.0109234140588352   2   7  10   3
     -0.0034049139881159   2   7  10   7
      0.0118877268304340   2   8   1   6
      0.0144985042959744   2   8   2   8
      0.0188479082630972   2   8   3   6
      0.0185326055739306   2   8   4   8
      0.0118877268304340   2   8   6   1
      0.0188479082630972   2   8   6   3
     -0.0062182045282151   2   8   6   7
     -0.0062182045282151   2   8   7   6
      0.0144985042959744   2   8   8   2
      0.0185326055739306   2   8   8   4
      0.0126087805289476   2   8   8  10
      0.0126087805289476   2   8  10   8
      0.0118877268304340   2   9   1   5
      0.0144985042959744   2   9   2   9
      0.0188479082630972   2   9   3   5
      0.0185326055739306   2   9   4   9
      0.0118877268304340   2   9   5   1
      0.0188479082630972   2   9   5   3
     -0.0062182045282151   2   9   5   7
     -0.0062182045282151   2   9   7   5
      0.0144985042959744   2   9   9   2
      0.0185326055739306   2   9   9   4
      0.0126087805289476   2   9   9  10
      0.0126087805289476   2   9  10   9
     -0.1312665818544435   2  10   1   1
      0.0280121734064893   2  10   1   3
      0.0061211971161334   2  10   1   7
     -0.1310504915869674   2  10   2   2
      0.0142909409682509   2  10   2   4
      0.0370448424657781   2  10   2  10
      0.0280121734064893   2  10   3   1
      0.0221338765997694   2  10   3   3
      0.0167871524328947   2  10   3   7
      0.0142909409682509   2  10   4   2
     -0.0162235195160039   2  10   4   4
      0.0137321928705281   2  10   4  10
      0.0064394622201225   2  10   5   5
      0.0064394622201225   2  10   6   6
      0.0061211971161334   2  10   7   1
      0.0167871524328947   2  10   7   3
     -0.0121185370235524   2  10   7   7
     -0.0003361779981813   2  10   8   8
     -0.0003361779981813   2  10   9   9
      0.0370448424657781   2  10  10   2
      0.0137321928705281   2  10  10   4
      0.0135347808950732   2  10  10  10
     -0.1914404665982649   3   1   1   1
      0.0309482307896134   3   1   1   3
     -0.0065652065105132   3   1   1   7
     -0.1913035533057048   3   1   2   2
      0.0258190185987401   3   1   2   4
      0.0280121734064893   3   1   2  10
      0.0309482307896134   3   1   3   1
      0.0020222979850915   3   1   3   3
      0.0072351540891540   3   1   3   7
      0.0258190185987401   3   1   4   2
     -0.0125636523694705   3   1   4   4
      0.0028764193325744   3   1   4  10
     -0.0015138854750615   3   1   5   5
     -0.0015138854750615   3   1   6   6
     -0.0065652065105132   3   1   7   1
      0.0072351540891540   3   1   7   3
     -0.0089761290563318   3   1   7   7
     -0.0059488162170643   3   1   8   8
     -0.0059488162170643   3   1   9   9
      0.0280121734064893   3   1  10   2
      0.0028764193325744   3   1  10   4
     -0.0055163682876748   3   1  10  10
     -0.1983666215420871   3   2   1   2
      0.0260148600615735   3   2   1   4
      0.0275389835720958   3   2   1  10
     -0.1983666215420871   3   2   2   1
      0.0306870405687420   3   2   2   3
     -0.0070242229985144   3   2   2   7
      0.0306870405687420   3   2   3   2
     -0.0083001343067218   3   2   3   4
     -0.0049951236177156   3   2   3  10
      0.0260148600615735   3   2   4   1
     -0.0083001343067218   3   2   4   3
      0.0138780026893184   3   2   4   7
     -0.0088403176516692   3   2   5   9
     -0.0088403176516692   3   2   6   8
     -0.0070242229985144   3   2   7   2
      0.0138780026893184   3   2   7   4
     -0.0068262963241533   3   2   7  10
     -0.0088403176516692   3   2   8   6
     -0.0088403176516692   3   2   9   5
      0.0275389835720958   3   2  10   1
     -0.0049951236177156   3   2  10   3
     -0.0068262963241533   3   2  10   7
      0.7868840776029880   3   3   1   1
      0.0020222979850915   3   3   1   3
      0.0254970389618475   3   3   1   7
      0.7869699869623663   3   3   2   2
     -0.0182719141876170   3   3   2   4
      0.0221338765997694   3   3   2  10
      0.0020222979850915   3   3   3   1
      0.7472181500303382   3   3   3   3
      0.1088646551953509   3   3   3   7
     -0.0182719141876170   3   3   4   2
      0.5119501394596900   3   3   4   4
      0.0735318763959967   3   3   4  10
      0.6171757554628817   3   3   5   5
      0.6171757554628817   3   3   6   6
      0.0254970389618475   3   3   7   1
      0.1088646551953509   3   3   7   3
      0.5424367785711680   3   3   7   7
      0.5960361351608523   3   3   8   8
      0.5960361351608523   3   3   9   9
      0.0221338765997694   3   3  10   2
      0.0735318763959967   3   3  10   4
      0.7241338005133203   3   3  10  10
      0.1721198434066936   3   4   1   2
     -0.0048287136178826   3   4   1   4
     -0.0081345324411005   3   4   1  10
      0.1721198434066936   3   4   2   1
     -0.0083001343067218   3   4   2   3
     -0.0007778777748208   3   4   2   7
     -0.0083001343067218   3   4   3   2
      0.0564762674231358   3   4   3   4
      0.0592044151484673   3   4   3  10
     -0.0048287136178826   3   4   4   1
      0.0564762674231358   3   4   4   3
     -0.0930856358386668   3   4   4   7
      0.0966923496441797   3   4   5   9
      0.0966923496441797   3   4   6   8
     -0.0007778777748208   3   4   7   2
     -0.0930856358386668   3   4   7   4
      0.0548145780780939   3   4   7  10
      0.0966923496441797   3   4   8   6
      0.0966923496441797   3   4   9   5
     -0.0081345324411005   3   4  10   1
      0.0592044151484673   3   4  10   3
      0.0548145780780939   3   4  10   7
      0.0166207301027021   3   5   1   5
      0.0188479082630972   3   5   2   9
      0.1049701474299434   3   5   3   5
      0.0741012791667858   3   5   4   9
      0.0166207301027021   3   5   5   1
      0.1049701474299434   3   5   5   3
     -0.0138451158267900   3   5   5   7
     -0.0138451158267900   3   5   7   5
      0.0188479082630972   3   5   9   2
      0.0741012791667858   3   5   9   4
      0.0616291882209877   3   5   9  10
      0.0616291882209877   3   5  10   9
      0.0166207301027021   3   6   1   6
      0.0188479082630972   3   6   2   8
      0.1049701474299434   3   6   3   6
      0.0741012791667858   3   6   4   8
      0.0166207301027021   3   6   6   1
      0.1049701474299434   3   6   6   3
     -0.0138451158267900   3   6   6   7
     -0.0138451158267900   3   6   7   6
      0.0188479082630972   3   6   8   2
      0.0741012791667858   3   6   8   4
      0.0616291882209877   3   6   8  10
      0.0616291882209877   3   6  10   8
      0.0655012164631069   3   7   1   1
      0.0072351540891540   3   7   1   3
      0.0123610459111035   3   7   1   7
      0.0655591199707563   3   7   2   2
     -0.0047751805135661   3   7   2   4
      0.0167871524328947   3   7   2  10
      0.0072351540891540   3   7   3   1
      0.1088646551953510   3   7   3   3
      0.0516460777054862   3   7   3   7
     -0.0047751805135661   3   7   4   2
     -0.0011351947319109   3   7   4   4
      0.0297220625565747   3   7   4  10
      0.0469597596578888   3   7   5   5
      0.0469597596578888   3   7   6   6
      0.0123610459111035   3   7   7   1
      0.0516460777054862   3   7   7   3
      0.0161748568267257   3   7   7   7
      0.0292283091812474   3   7   8   8
      0.0292283091812474   3   7   9   9
      0.0167871524328947   3   7  10   2
      0.0297220625565747   3   7  10   4
      0.0875399859213922   3   7  10  10
      0.0134411058431965   3   8   1   8
      0.0114368254326912   3   8   2   6
      0.0442491710075647   3   8   3   8
      0.0429261294022729   3   8   4   6
      0.0114368254326912   3   8   6   2
      0.0429261294022729   3   8   6   4
      0.0340154290387041   3   8   6  10
     -0.0249968565561606   3   8   7   8
      0.0134411058431965   3   8   8   1
      0.0442491710075647   3   8   8   3
     -0.0249968565561606   3   8   8   7
      0.0340154290387041   3   8  10   6
      0.0134411058431965   3   9   1   9
      0.0114368254326912   3   9   2   5
      0.0442491710075647   3   9   3   9
      0.0429261294022729   3   9   4   5
      0.0114368254326912   3   9   5   2
      0.0429261294022729   3   9   5   4
      0.0340154290387041   3   9   5  10
     -0.0249968565561606   3   9   7   9
      0.0134411058431965   3   9   9   1
      0.0442491710075647   3   9   9   3
     -0.0249968565561606   3   9   9   7
      0.0340154290387041   3   9  10   5
      0.2263328771848498   3  10   1   2
     -0.0114483135744942   3  10   1   4
      0.0059622326224018   3  10   1  10
      0.2263328771848498   3  10   2   1
     -0.0049951236177156   3  10   2   3
      0.0109234140588352   3  10   2   7
     -0.0049951236177156   3  10   3   2
      0.0592044151484674   3  10   3   4
      0.1066529235396469   3  10   3  10
     -0.0114483135744942   3  10   4   1
      0.0592044151484674   3  10   4   3
     -0.0568077386219997   3  10   4   7
      0.1021480423477965   3  10   5   9
      0.1021480423477965   3  10   6   8
      0.0109234140588352   3  10   7   2
     -0.0568077386219997   3  10   7   4
      0.0588860809162216   3  10   7  10
      0.1021480423477965   3  10   8   6
      0.1021480423477965   3  10   9   5
      0.0059622326224018   3  10  10   1
      0.1066529235396469   3  10  10   3
      0.0588860809162216   3  10  10   7
     -0.1846139501158441   4   1   1   2
      0.0287155847866985   4   1   1   4
      0.0148212030601175   4   1   1  10
     -0.1846139501158441   4   1   2   1
      0.0260148600615735   4   1   2   3
     -0.0147837545202593   4   1   2   7
      0.0260148600615735   4   1   3   2
     -0.0048287136178826   4   1   3   4
     -0.0114483135744942   4   1   3  10
      0.0287155847866985   4   1   4   1
     -0.0048287136178826   4   1   4   3
     -0.0023235595656652   4   1   4   7
     -0.0027461984092946   4   1   5   9
     -0.0027461984092946   4   1   6   8
     -0.0147837545202593   4   1   7   2
     -0.0023235595656652   4   1   7   4
     -0.0017083006038533   4   1   7  10
     -0.0027461984092946   4   1   8   6
     -0.0027461984092946   4   1   9   5
      0.0148212030601175   4   1  10   1
     -0.0114483135744942   4   1  10   3
     -0.0017083006038533   4   1  10   7
     -0.1915180728904323   4   2   1   1
      0.0258190185987401   4   2   1   3
     -0.0152157617156938   4   2   1   7
     -0.1914693443777367   4   2   2   2
      0.0289114823976206   4   2   2   4
      0.0142909409682509   4   2   2  10
      0.0258190185987401   4   2   3   1
     -0.0182719141876170   4   2   3   3
     -0.0047751805135661   4   2   3   7
      0.0289114823976206   4   2   4   2
     -0.0049101511309765   4   2   4   4
     -0.0074621473184370   4   2   4  10
     -0.0077286781258514   4   2   5   5
     -0.0077286781258514   4   2   6   6
     -0.0152157617156938   4   2   7   1
     -0.0047751805135661   4   2   7   3
     -0.0037242649402175   4   2   7   7
     -0.0077432527464363   4   2   8   8
     -0.0077432527464363   4   2   9   9
      0.0142909409682509   4   2  10   2
     -0.0074621473184370   4   2  10   4
     -0.0209471183540492   4   2  10  10
      0.1721198434066936   4   3   1   2
     -0.0048287136178826   4   3   1   4
     -0.0081345324411005   4   3   1  10
      0.1721198434066936   4   3   2   1
     -0.0083001343067218   4   3   2   3
     -0.0007778777748208   4   3   2   7
     -0.0083001343067218   4   3   3   2
      0.0564762674231358   4   3   3   4
      0.0592044151484673   4   3   3  10
     -0.0048287136178826   4   3   4   1
      0.0564762674231358   4   3   4   3
     -0.0930856358386668   4   3   4   7
      0.0966923496441797   4   3   5   9
      0.0966923496441797   4   3   6   8
     -0.0007778777748208   4   3   7   2
     -0.0930856358386668   4   3   7   4
      0.0548145780780939   4   3   7  10
      0.0966923496441797   4   3   8   6
      0.0966923496441797   4   3   9   5
     -0.0081345324411005   4   3  10   1
      0.0592044151484673   4   3  10   3
      0.0548145780780939   4   3  10   7
      0.6671458921492035   4   4   1   1
     -0.0125636523694705   4   4   1   3
     -0.0042069788937494   4   4   1   7
      0.6670820515696625   4   4   2   2
     -0.0049101511309765   4   4   2   4
     -0.0162235195160039   4   4   2  10
     -0.0125636523694705   4   4   3   1
      0.5119501394596900   4   4   3   3
     -0.0011351947319109   4   4   3   7
     -0.0049101511309765   4   4   4   2
      0.5453708953391089   4   4   4   4
     -0.0198144150257220   4   4   4  10
      0.5100096682475305   4   4   5   5
      0.5100096682475305   4   4   6   6
     -0.0042069788937494   4   4   7   1
     -0.0011351947319109   4   4   7   3
      0.5570968878598430   4   4   7   7
      0.5358793067762772   4   4   8   8
      0.5358793067762772   4   4   9   9
     -0.0162235195160039   4   4  10   2
     -0.0198144150257220   4   4  10   4
      0.5594683590121171   4   4  10  10
      0.0134691761876448   4   5   1   9
      0.0112814228139245   4   5   2   5
      0.0429261294022729   4   5   3   9
      0.0508736779849288   4   5   4   5
      0.0112814228139245   4   5   5   2
      0.0508736779849288   4   5   5   4
      0.0238357275685587   4   5   5  10
     -0.0391314957826547   4   5   7   9
      0.0134691761876448   4   5   9   1
      0.0429261294022729   4   5   9   3
     -0.0391314957826547   4   5   9   7
      0.0238357275685587   4   5  10   5
      0.0134691761876448   4   6   1   8
      0.0112814228139245   4   6   2   6
      0.0429261294022729   4   6   3   8
      0.0508736779849288   4   6   4   6
      0.0112814228139245   4   6   6   2
      0.0508736779849288   4   6   6   4
      0.0238357275685587   4   6   6  10
     -0.0391314957826547   4   6   7   8
      0.0134691761876448   4   6   8   1
      0.0429261294022729   4   6   8   3
     -0.0391314957826547   4   6   8   7
      0.0238357275685587   4   6  10   6
     -0.2521981419460382   4   7   1   2
     -0.0023235595656652   4   7   1   4
      0.0262451133782312   4   7   1  10
     -0.2521981419460382   4   7   2   1
      0.0138780026893184   4   7   2   3
      0.0148721316446300   4   7   2   7
      0.0138780026893184   4   7   3   2
     -0.0930856358386667   4   7   3   4
     -0.0568077386219996   4   7   3  10
     -0.0023235595656652   4   7   4   1
     -0.0930856358386667   4   7   4   3
      0.2235584888627944   4   7   4   7
     -0.1574223354556351   4   7   5   9
     -0.1574223354556351   4   7   6   8
      0.0148721316446300   4   7   7   2
      0.2235584888627944   4   7   7   4
     -0.1243795456000214   4   7   7  10
     -0.1574223354556351   4   7   8   6
     -0.1574223354556351   4   7   9   5
      0.0262451133782312   4   7  10   1
     -0.0568077386219996   4   7  10   3
     -0.1243795456000214   4   7  10   7
      0.0156085856231960   4   8   1   6
      0.0185326055739306   4   8   2   8
      0.0741012791667858   4   8   3   6
      0.0823649309398921   4   8   4   8
      0.0156085856231960   4   8   6   1
      0.0741012791667858   4   8   6   3
     -0.0374298855477558   4   8   6   7
     -0.0374298855477558   4   8   7   6
      0.0185326055739306   4   8   8   2
      0.0823649309398921   4   8   8   4
      0.0360523940302873   4   8   8  10
      0.0360523940302873   4   8  10   8
      0.0156085856231960   4   9   1   5
      0.0185326055739306   4   9   2   9
      0.0741012791667858   4   9   3   5
      0.0823649309398921   4   9   4   9
      0.0156085856231960   4   9   5   1
      0.0741012791667858   4   9   5   3
     -0.0374298855477558   4   9   5   7
     -0.0374298855477558   4   9   7   5
      0.0185326055739306   4   9   9   2
      0.0823649309398921   4   9   9   4
      0.0360523940302873   4   9   9  10
      0.0360523940302873   4   9  10   9
      0.0491703695651632   4  10   1   1
      0.0028764193325744   4  10   1   3
      0.0122298230150511   4  10   1   7
      0.0492469366883173   4  10   2   2
     -0.0074621473184369   4  10   2   4
      0.0137321928705281   4  10   2  10
      0.0028764193325744   4  10   3   1
      0.0735318763959966   4  10   3   3
      0.0297220625565747   4  10   3   7
     -0.0074621473184369   4  10   4   2
     -0.0198144150257219   4  10   4   4
      0.0479110755714243   4  10   4  10
      0.0416720352843585   4  10   5   5
      0.0416720352843585   4  10   6   6
      0.0122298230150511   4  10   7   1
      0.0297220625565747   4  10   7   3
     -0.0274513191964202   4  10   7   7
      0.0284813814314829   4  10   8   8
      0.0284813814314829   4  10   9   9
      0.0137321928705281   4  10  10   2
      0.0479110755714243   4  10  10   4
      0.0456483257332251   4  10  10  10
      0.0097709748829623   5   1   1   5
      0.0118877268304340   5   1   2   9
      0.0166207301027021   5   1   3   5
      0.0156085856231960   5   1   4   9
      0.0097709748829623   5   1   5   1
      0.0166207301027021   5   1   5   3
     -0.0048610440316598   5   1   5   7
     -0.0048610440316598   5   1   7   5
      0.0118877268304340   5   1   9   2