 &FCI NORB=  10,NELEC=  14,MS2=   0,
  ORBSYM=1,5,1,5,3,2,1,6,7,5,
  ISYM=   1,
  IGENERAL=1,
 &END
      2.3068656644476730   1   1   1   1
     -0.1914404665989870   1   1   1   3
      0.0835840775028747   1   1   1   7
      2.3063511607353857   1   1   2   2
     -0.1915180728917820   1   1   2   4
     -0.1312665818549057   1   1   2  10
     -0.1914404665989870   1   1   3   1
      0.7868840776031918   1   1   3   3
      0.0655012164631825   1   1   3   7
     -0.1915180728917820   1   1   4   2
      0.6671458921502037   1   1   4   4
      0.0491703695678095   1   1   4  10
      0.6879790991819602   1   1   5   5
      0.6879790991819602   1   1   6   6
      0.0835840775028747   1   1   7   1
      0.0655012164631825   1   1   7   3
      0.6854056843138057   1   1   7   7
      0.7276833321892706   1   1   8   8
      0.7276833321892706   1   1   9   9
     -0.1312665818549057   1   1  10   2
      0.0491703695678095   1   1  10   4
      0.8958031735768688   1   1  10  10
      1.8249339818173089   1   2   1   2
     -0.1846139501174836   1   2   1   4
     -0.1496126043669926   1   2   1  10
      1.8249339818173089   1   2   2   1
     -0.1983666215425534   1   2   2   3
      0.0685565934535700   1   2   2   7
     -0.1983666215425534   1   2   3   2
      0.1721198434090815   1   2   3   4
      0.2263328771835302   1   2   3  10
     -0.1846139501174836   1   2   4   1
      0.1721198434090815   1   2   4   3
     -0.2521981419439425   1   2   4   7
      0.2753528636451877   1   2   5   9
      0.2753528636451877   1   2   6   8
      0.0685565934535700   1   2   7   2
     -0.2521981419439425   1   2   7   4
      0.1933359536734506   1   2   7  10
      0.2753528636451877   1   2   8   6
      0.2753528636451877   1   2   9   5
     -0.1496126043669926   1   2  10   1
      0.2263328771835302   1   2  10   3
      0.1933359536734506   1   2  10   7
     -0.1914404665989870   1   3   1   1
      0.0309482307898170   1   3   1   3
     -0.0065652065104476   1   3   1   7
     -0.1913035533063516   1   3   2   2
      0.0258190185991272   1   3   2   4
      0.0280121734066340   1   3   2  10
      0.0309482307898170   1   3   3   1
      0.0020222979850857   1   3   3   3
      0.0072351540891886   1   3   3   7
      0.0258190185991272   1   3   4   2
     -0.0125636523694954   1   3   4   4
      0.0028764193326231   1   3   4  10
     -0.0015138854750768   1   3   5   5
     -0.0015138854750768   1   3   6   6
     -0.0065652065104476   1   3   7   1
      0.0072351540891886   1   3   7   3
     -0.0089761290563887   1   3   7   7
     -0.0059488162171181   1   3   8   8
     -0.0059488162171181   1   3   9   9
      0.0280121734066340   1   3  10   2
      0.0028764193326231   1   3  10   4
     -0.0055163682878778   1   3  10  10
     -0.1846139501174835   1   4   1   2
      0.0287155847870179   1   4   1   4
      0.0148212030605199   1   4   1  10
     -0.1846139501174835   1   4   2   1
      0.0260148600619424   1   4   2   3
     -0.0147837545201234   1   4   2   7
      0.0260148600619424   1   4   3   2
     -0.0048287136181231   1   4   3   4
     -0.0114483135744519   1   4   3  10
      0.0287155847870179   1   4   4   1
     -0.0048287136181231   1   4   4   3
     -0.0023235595653562   1   4   4   7
     -0.0027461984094391   1   4   5   9
     -0.0027461984094391   1   4   6   8
     -0.0147837545201234   1   4   7   2
     -0.0023235595653562   1   4   7   4
     -0.0017083006039531   1   4   7  10
     -0.0027461984094391   1   4   8   6
     -0.0027461984094391   1   4   9   5
      0.0148212030605199   1   4  10   1
     -0.0114483135744519   1   4  10   3
     -0.0017083006039531   1   4  10   7
      0.0097709748829746   1   5   1   5
      0.0118877268304610   1   5   2   9
      0.0166207301027444   1   5   3   5
      0.0156085856233268   1   5   4   9
      0.0097709748829746   1   5   5   1
      0.0166207301027444   1   5   5   3
     -0.0048610440316565   1   5   5   7
     -0.0048610440316565   1   5   7   5
      0.0118877268304610   1   5   9   2
      0.0156085856233268   1   5   9   4
      0.0111174726036805   1   5   9  10
      0.0111174726036805   1   5  10   9
      0.0097709748829746   1   6   1   6
      0.0118877268304610   1   6   2   8
      0.0166207301027444   1   6   3   6
      0.0156085856233268   1   6   4   8
      0.0097709748829746   1   6   6   1
      0.0166207301027444   1   6   6   3
     -0.0048610440316565   1   6   6   7
     -0.0048610440316565   1   6   7   6
      0.0118877268304610   1   6   8   2
      0.0156085856233268   1   6   8   4
      0.0111174726036805   1   6   8  10
      0.0111174726036805   1   6  10   8
      0.0835840775028747   1   7   1   1
     -0.0065652065104476   1   7   1   3
      0.0142698628276369   1   7   1   7
      0.0836430878920465   1   7   2   2
     -0.0152157617155317   1   7   2   4
      0.0061211971162489   1   7   2  10
     -0.0065652065104476   1   7   3   1
      0.0254970389617945   1   7   3   3
      0.0123610459111067   1   7   3   7
     -0.0152157617155317   1   7   4   2
     -0.0042069788935542   1   7   4   4
      0.0122298230153286   1   7   4  10
      0.0089481409782629   1   7   5   5
      0.0089481409782629   1   7   6   6
      0.0142698628276369   1   7   7   1
      0.0123610459111067   1   7   7   3
     -0.0027000281031133   1   7   7   7
      0.0053577665102195   1   7   8   8
      0.0053577665102195   1   7   9   9
      0.0061211971162489   1   7  10   2
      0.0122298230153286   1   7  10   4
      0.0228800525232867   1   7  10  10
      0.0138173617685866   1   8   1   8
      0.0113100667547958   1   8   2   6
      0.0134411058432014   1   8   3   8
      0.0134691761877468   1   8   4   6
      0.0113100667547958   1   8   6   2
      0.0134691761877468   1   8   6   4
      0.0098885596923715   1   8   6  10
     -0.0086087414709990   1   8   7   8
      0.0138173617685866   1   8   8   1
      0.0134411058432014   1   8   8   3
     -0.0086087414709990   1   8   8   7
      0.0098885596923715   1   8  10   6
      0.0138173617685866   1   9   1   9
      0.0113100667547958   1   9   2   5
      0.0134411058432014   1   9   3   9
      0.0134691761877468   1   9   4   5
      0.0113100667547958   1   9   5   2
      0.0134691761877468   1   9   5   4
      0.0098885596923715   1   9   5  10
     -0.0086087414709990   1   9   7   9
      0.0138173617685866   1   9   9   1
      0.0134411058432014   1   9   9   3
     -0.0086087414709990   1   9   9   7
      0.0098885596923715   1   9  10   5
     -0.1496126043669924   1  10   1   2
      0.0148212030605199   1  10   1   4
      0.0359352673962151   1  10   1  10
     -0.1496126043669924   1  10   2   1
      0.0275389835722543   1  10   2   3
      0.0050309140036470   1  10   2   7
      0.0275389835722543   1  10   3   2
     -0.0081345324412452   1  10   3   4
      0.0059622326222263   1  10   3  10
      0.0148212030605199   1  10   4   1
     -0.0081345324412452   1  10   4   3
      0.0262451133784978   1  10   4   7
     -0.0099113090131360   1  10   5   9
     -0.0099113090131360   1  10   6   8
      0.0050309140036470   1  10   7   2
      0.0262451133784978   1  10   7   4
     -0.0095429778973049   1  10   7  10
     -0.0099113090131360   1  10   8   6
     -0.0099113090131360   1  10   9   5
      0.0359352673962151   1  10  10   1
      0.0059622326222263   1  10  10   3
     -0.0095429778973049   1  10  10   7
      1.8249339818173089   2   1   1   2
     -0.1846139501174836   2   1   1   4
     -0.1496126043669926   2   1   1  10
      1.8249339818173089   2   1   2   1
     -0.1983666215425534   2   1   2   3
      0.0685565934535700   2   1   2   7
     -0.1983666215425534   2   1   3   2
      0.1721198434090815   2   1   3   4
      0.2263328771835302   2   1   3  10
     -0.1846139501174836   2   1   4   1
      0.1721198434090815   2   1   4   3
     -0.2521981419439425   2   1   4   7
      0.2753528636451877   2   1   5   9
      0.2753528636451877   2   1   6   8
      0.0685565934535700   2   1   7   2
     -0.2521981419439425   2   1   7   4
      0.1933359536734506   2   1   7  10
      0.2753528636451877   2   1   8   6
      0.2753528636451877   2   1   9   5
     -0.1496126043669926   2   1  10   1
      0.2263328771835302   2   1  10   3
      0.1933359536734506   2   1  10   7
      2.3063511607353866   2   2   1   1
     -0.1913035533063517   2   2   1   3
      0.0836430878920466   2   2   1   7
      2.3058381063772817   2   2   2   2
     -0.1914693443790426   2   2   2   4
     -0.1310504915873336   2   2   2  10
     -0.1913035533063517   2   2   3   1
      0.7869699869626179   2   2   3   3
      0.0655591199708701   2   2   3   7
     -0.1914693443790426   2   2   4   2
      0.6670820515706245   2   2   4   4
      0.0492469366909965   2   2   4  10
      0.6880230406586388   2   2   5   5
      0.6880230406586388   2   2   6   6
      0.0836430878920466   2   2   7   1
      0.0655591199708701   2   2   7   3
      0.6853423268081662   2   2   7   7
      0.7277125780396616   2   2   8   8
      0.7277125780396616   2   2   9   9
     -0.1310504915873336   2   2  10   2
      0.0492469366909965   2   2  10   4
      0.8958777131362122   2   2  10  10
     -0.1983666215425534   2   3   1   2
      0.0260148600619424   2   3   1   4
      0.0275389835722543   2   3   1  10
     -0.1983666215425534   2   3   2   1
      0.0306870405689256   2   3   2   3
     -0.0070242229984481   2   3   2   7
      0.0306870405689256   2   3   3   2
     -0.0083001343067698   2   3   3   4
     -0.0049951236176261   2   3   3  10
      0.0260148600619424   2   3   4   1
     -0.0083001343067698   2   3   4   3
      0.0138780026892586   2   3   4   7
     -0.0088403176516250   2   3   5   9
     -0.0088403176516250   2   3   6   8
     -0.0070242229984481   2   3   7   2
      0.0138780026892586   2   3   7   4
     -0.0068262963242856   2   3   7  10
     -0.0088403176516250   2   3   8   6
     -0.0088403176516250   2   3   9   5
      0.0275389835722543   2   3  10   1
     -0.0049951236176261   2   3  10   3
     -0.0068262963242856   2   3  10   7
     -0.1915180728917819   2   4   1   1
      0.0258190185991271   2   4   1   3
     -0.0152157617155317   2   4   1   7
     -0.1914693443790426   2   4   2   2
      0.0289114823979111   2   4   2   4
      0.0142909409686572   2   4   2  10
      0.0258190185991271   2   4   3   1
     -0.0182719141873156   2   4   3   3
     -0.0047751805133578   2   4   3   7
      0.0289114823979111   2   4   4   2
     -0.0049101511313371   2   4   4   4
     -0.0074621473184341   2   4   4  10
     -0.0077286781257294   2   4   5   5
     -0.0077286781257294   2   4   6   6
     -0.0152157617155317   2   4   7   1
     -0.0047751805133578   2   4   7   3
     -0.0037242649403834   2   4   7   7
     -0.0077432527464060   2   4   8   8
     -0.0077432527464060   2   4   9   9
      0.0142909409686572   2   4  10   2
     -0.0074621473184341   2   4  10   4
     -0.0209471183537612   2   4  10  10
      0.0113100667547958   2   5   1   9
      0.0092697615524783   2   5   2   5
      0.0114368254327481   2   5   3   9
      0.0112814228140549   2   5   4   5
      0.0092697615524783   2   5   5   2
      0.0112814228140549   2   5   5   4
      0.0085936714827686   2   5   5  10
     -0.0070266882478198   2   5   7   9
      0.0113100667547958   2   5   9   1
      0.0114368254327481   2   5   9   3
     -0.0070266882478198   2   5   9   7
      0.0085936714827686   2   5  10   5
      0.0113100667547958   2   6   1   8
      0.0092697615524783   2   6   2   6
      0.0114368254327481   2   6   3   8
      0.0112814228140549   2   6   4   6
      0.0092697615524783   2   6   6   2
      0.0112814228140549   2   6   6   4
      0.0085936714827686   2   6   6  10
     -0.0070266882478198   2   6   7   8
      0.0113100667547958   2   6   8   1
      0.0114368254327481   2   6   8   3
     -0.0070266882478198   2   6   8   7
      0.0085936714827686   2   6  10   6
      0.0685565934535700   2   7   1   2
     -0.0147837545201234   2   7   1   4
      0.0050309140036470   2   7   1  10
      0.0685565934535700   2   7   2   1
     -0.0070242229984481   2   7   2   3
      0.0133156519880474   2   7   2   7
     -0.0070242229984481   2   7   3   2
     -0.0007778777746981   2   7   3   4
      0.0109234140588450   2   7   3  10
     -0.0147837545201234   2   7   4   1
     -0.0007778777746981   2   7   4   3
      0.0148721316445230   2   7   4   7
     -0.0037820846331260   2   7   5   9
     -0.0037820846331260   2   7   6   8
      0.0133156519880474   2   7   7   2
      0.0148721316445230   2   7   7   4
     -0.0034049139882307   2   7   7  10
     -0.0037820846331260   2   7   8   6
     -0.0037820846331260   2   7   9   5
      0.0050309140036470   2   7  10   1
      0.0109234140588450   2   7  10   3
     -0.0034049139882307   2   7  10   7
      0.0118877268304610   2   8   1   6
      0.0144985042960206   2   8   2   8
      0.0188479082632035   2   8   3   6
      0.0185326055741243   2   8   4   8
      0.0118877268304610   2   8   6   1
      0.0188479082632035   2   8   6   3
     -0.0062182045282207   2   8   6   7
     -0.0062182045282207   2   8   7   6
      0.0144985042960206   2   8   8   2
      0.0185326055741243   2   8   8   4
      0.0126087805288206   2   8   8  10
      0.0126087805288206   2   8  10   8
      0.0118877268304610   2   9   1   5
      0.0144985042960206   2   9   2   9
      0.0188479082632035   2   9   3   5
      0.0185326055741243   2   9   4   9
      0.0118877268304610   2   9   5   1
      0.0188479082632035   2   9   5   3
     -0.0062182045282207   2   9   5   7
     -0.0062182045282207   2   9   7   5
      0.0144985042960206   2   9   9   2
      0.0185326055741243   2   9   9   4
      0.0126087805288206   2   9   9  10
      0.0126087805288206   2   9  10   9
     -0.1312665818549056   2  10   1   1
      0.0280121734066340   2  10   1   3
      0.0061211971162489   2  10   1   7
     -0.1310504915873335   2  10   2   2
      0.0142909409686572   2  10   2   4
      0.0370448424659899   2  10   2  10
      0.0280121734066340   2  10   3   1
      0.0221338765998186   2  10   3   3
      0.0167871524329705   2  10   3   7
      0.0142909409686572   2  10   4   2
     -0.0162235195158677   2  10   4   4
      0.0137321928708715   2  10   4  10
      0.0064394622200865   2  10   5   5
      0.0064394622200865   2  10   6   6
      0.0061211971162489   2  10   7   1
      0.0167871524329705   2  10   7   3
     -0.0121185370236757   2  10   7   7
     -0.0003361779982839   2  10   8   8
     -0.0003361779982839   2  10   9   9
      0.0370448424659899   2  10  10   2
      0.0137321928708715   2  10  10   4
      0.0135347808946512   2  10  10  10
     -0.1914404665989870   3   1   1   1
      0.0309482307898170   3   1   1   3
     -0.0065652065104476   3   1   1   7
     -0.1913035533063516   3   1   2   2
      0.0258190185991272   3   1   2   4
      0.0280121734066340   3   1   2  10
      0.0309482307898170   3   1   3   1
      0.0020222979850857   3   1   3   3
      0.0072351540891886   3   1   3   7
      0.0258190185991272   3   1   4   2
     -0.0125636523694954   3   1   4   4
      0.0028764193326231   3   1   4  10
     -0.0015138854750768   3   1   5   5
     -0.0015138854750768   3   1   6   6
     -0.0065652065104476   3   1   7   1
      0.0072351540891886   3   1   7   3
     -0.0089761290563887   3   1   7   7
     -0.0059488162171181   3   1   8   8
     -0.0059488162171181   3   1   9   9
      0.0280121734066340   3   1  10   2
      0.0028764193326231   3   1  10   4
     -0.0055163682878778   3   1  10  10
     -0.1983666215425534   3   2   1   2
      0.0260148600619424   3   2   1   4
      0.0275389835722543   3   2   1  10
     -0.1983666215425534   3   2   2   1
      0.0306870405689256   3   2   2   3
     -0.0070242229984481   3   2   2   7
      0.0306870405689256   3   2   3   2
     -0.0083001343067698   3   2   3   4
     -0.0049951236176261   3   2   3  10
      0.0260148600619424   3   2   4   1
     -0.0083001343067698   3   2   4   3
      0.0138780026892586   3   2   4   7
     -0.0088403176516250   3   2   5   9
     -0.0088403176516250   3   2   6   8
     -0.0070242229984481   3   2   7   2
      0.0138780026892586   3   2   7   4
     -0.0068262963242856   3   2   7  10
     -0.0088403176516250   3   2   8   6
     -0.0088403176516250   3   2   9   5
      0.0275389835722543   3   2  10   1
     -0.0049951236176261   3   2  10   3
     -0.0068262963242856   3   2  10   7
      0.7868840776031919   3   3   1   1
      0.0020222979850857   3   3   1   3
      0.0254970389617945   3   3   1   7
      0.7869699869626180   3   3   2   2
     -0.0182719141873157   3   3   2   4
      0.0221338765998186   3   3   2  10
      0.0020222979850857   3   3   3   1
      0.7472181500302848   3   3   3   3
      0.1088646551953412   3   3   3   7
     -0.0182719141873157   3   3   4   2
      0.5119501394611807   3   3   4   4
      0.0735318763981448   3   3   4  10
      0.6171757554628726   3   3   5   5
      0.6171757554628726   3   3   6   6
      0.0254970389617945   3   3   7   1
      0.1088646551953412   3   3   7   3
      0.5424367785711738   3   3   7   7
      0.5960361351608516   3   3   8   8
      0.5960361351608516   3   3   9   9
      0.0221338765998186   3   3  10   2
      0.0735318763981448   3   3  10   4
      0.7241338005117556   3   3  10  10
      0.1721198434090814   3   4   1   2
     -0.0048287136181231   3   4   1   4
     -0.0081345324412452   3   4   1  10
      0.1721198434090814   3   4   2   1
     -0.0083001343067698   3   4   2   3
     -0.0007778777746981   3   4   2   7
     -0.0083001343067698   3   4   3   2
      0.0564762674243501   3   4   3   4
      0.0592044151489953   3   4   3  10
     -0.0048287136181231   3   4   4   1
      0.0564762674243501   3   4   4   3
     -0.0930856358387029   3   4   4   7
      0.0966923496452237   3   4   5   9
      0.0966923496452237   3   4   6   8
     -0.0007778777746981   3   4   7   2
     -0.0930856358387029   3   4   7   4
      0.0548145780796447   3   4   7  10
      0.0966923496452237   3   4   8   6
      0.0966923496452237   3   4   9   5
     -0.0081345324412452   3   4  10   1
      0.0592044151489953   3   4  10   3
      0.0548145780796447   3   4  10   7
      0.0166207301027444   3   5   1   5
      0.0188479082632035   3   5   2   9
      0.1049701474299296   3   5   3   5
      0.0741012791673986   3   5   4   9
      0.0166207301027444   3   5   5   1
      0.1049701474299296   3   5   5   3
     -0.0138451158267866   3   5   5   7
     -0.0138451158267866   3   5   7   5
      0.0188479082632035   3   5   9   2
      0.0741012791673986   3   5   9   4
      0.0616291882202065   3   5   9  10
      0.0616291882202065   3   5  10   9
      0.0166207301027444   3   6   1   6
      0.0188479082632035   3   6   2   8
      0.1049701474299296   3   6   3   6
      0.0741012791673986   3   6   4   8
      0.0166207301027444   3   6   6   1
      0.1049701474299296   3   6   6   3
     -0.0138451158267866   3   6   6   7
     -0.0138451158267866   3   6   7   6
      0.0188479082632035   3   6   8   2
      0.0741012791673986   3   6   8   4
      0.0616291882202065   3   6   8  10
      0.0616291882202065   3   6  10   8
      0.0655012164631825   3   7   1   1
      0.0072351540891886   3   7   1   3
      0.0123610459111067   3   7   1   7
      0.0655591199708701   3   7   2   2
     -0.0047751805133578   3   7   2   4
      0.0167871524329705   3   7   2  10
      0.0072351540891886   3   7   3   1
      0.1088646551953412   3   7   3   3
      0.0516460777054876   3   7   3   7
     -0.0047751805133578   3   7   4   2
     -0.0011351947313110   3   7   4   4
      0.0297220625574746   3   7   4  10
      0.0469597596578961   3   7   5   5
      0.0469597596578961   3   7   6   6
      0.0123610459111067   3   7   7   1
      0.0516460777054876   3   7   7   3
      0.0161748568267267   3   7   7   7
      0.0292283091812537   3   7   8   8
      0.0292283091812537   3   7   9   9
      0.0167871524329705   3   7  10   2
      0.0297220625574746   3   7  10   4
      0.0875399859207438   3   7  10  10
      0.0134411058432014   3   8   1   8
      0.0114368254327481   3   8   2   6
      0.0442491710075566   3   8   3   8
      0.0429261294026106   3   8   4   6
      0.0114368254327481   3   8   6   2
      0.0429261294026106   3   8   6   4
      0.0340154290382495   3   8   6  10
     -0.0249968565561617   3   8   7   8
      0.0134411058432014   3   8   8   1
      0.0442491710075566   3   8   8   3
     -0.0249968565561617   3   8   8   7
      0.0340154290382495   3   8  10   6
      0.0134411058432014   3   9   1   9
      0.0114368254327481   3   9   2   5
      0.0442491710075566   3   9   3   9
      0.0429261294026106   3   9   4   5
      0.0114368254327481   3   9   5   2
      0.0429261294026106   3   9   5   4
      0.0340154290382495   3   9   5  10
     -0.0249968565561617   3   9   7   9
      0.0134411058432014   3   9   9   1
      0.0442491710075566   3   9   9   3
     -0.0249968565561617   3   9   9   7
      0.0340154290382495   3   9  10   5
      0.2263328771835301   3  10   1   2
     -0.0114483135744520   3  10   1   4
      0.0059622326222263   3  10   1  10
      0.2263328771835301   3  10   2   1
     -0.0049951236176261   3  10   2   3
      0.0109234140588450   3  10   2   7
     -0.0049951236176261   3  10   3   2
      0.0592044151489952   3  10   3   4
      0.1066529235384574   3  10   3  10
     -0.0114483135744520   3  10   4   1
      0.0592044151489952   3  10   4   3
     -0.0568077386204880   3  10   4   7
      0.1021480423468369   3  10   5   9
      0.1021480423468369   3  10   6   8
      0.0109234140588450   3  10   7   2
     -0.0568077386204880   3  10   7   4
      0.0588860809162384   3  10   7  10
      0.1021480423468369   3  10   8   6
      0.1021480423468369   3  10   9   5
      0.0059622326222263   3  10  10   1
      0.1066529235384574   3  10  10   3
      0.0588860809162384   3  10  10   7
     -0.1846139501174835   4   1   1   2
      0.0287155847870179   4   1   1   4
      0.0148212030605199   4   1   1  10
     -0.1846139501174835   4   1   2   1
      0.0260148600619424   4   1   2   3
     -0.0147837545201234   4   1   2   7
      0.0260148600619424   4   1   3   2
     -0.0048287136181231   4   1   3   4
     -0.0114483135744519   4   1   3  10
      0.0287155847870179   4   1   4   1
     -0.0048287136181231   4   1   4   3
     -0.0023235595653562   4   1   4   7
     -0.0027461984094391   4   1   5   9
     -0.0027461984094391   4   1   6   8
     -0.0147837545201234   4   1   7   2
     -0.0023235595653562   4   1   7   4
     -0.0017083006039531   4   1   7  10
     -0.0027461984094391   4   1   8   6
     -0.0027461984094391   4   1   9   5
      0.0148212030605199   4   1  10   1
     -0.0114483135744519   4   1  10   3
     -0.0017083006039531   4   1  10   7
     -0.1915180728917819   4   2   1   1
      0.0258190185991271   4   2   1   3
     -0.0152157617155317   4   2   1   7
     -0.1914693443790426   4   2   2   2
      0.0289114823979111   4   2   2   4
      0.0142909409686572   4   2   2  10
      0.0258190185991271   4   2   3   1
     -0.0182719141873156   4   2   3   3
     -0.0047751805133578   4   2   3   7
      0.0289114823979111   4   2   4   2
     -0.0049101511313371   4   2   4   4
     -0.0074621473184341   4   2   4  10
     -0.0077286781257294   4   2   5   5
     -0.0077286781257294   4   2   6   6
     -0.0152157617155317   4   2   7   1
     -0.0047751805133578   4   2   7   3
     -0.0037242649403834   4   2   7   7
     -0.0077432527464060   4   2   8   8
     -0.0077432527464060   4   2   9   9
      0.0142909409686572   4   2  10   2
     -0.0074621473184341   4   2  10   4
     -0.0209471183537612   4   2  10  10
      0.1721198434090814   4   3   1   2
     -0.0048287136181231   4   3   1   4
     -0.0081345324412452   4   3   1  10
      0.1721198434090814   4   3   2   1
     -0.0083001343067698   4   3   2   3
     -0.0007778777746981   4   3   2   7
     -0.0083001343067698   4   3   3   2
      0.0564762674243501   4   3   3   4
      0.0592044151489953   4   3   3  10
     -0.0048287136181231   4   3   4   1
      0.0564762674243501   4   3   4   3
     -0.0930856358387029   4   3   4   7
      0.0966923496452237   4   3   5   9
      0.0966923496452237   4   3   6   8
     -0.0007778777746981   4   3   7   2
     -0.0930856358387029   4   3   7   4
      0.0548145780796447   4   3   7  10
      0.0966923496452237   4   3   8   6
      0.0966923496452237   4   3   9   5
     -0.0081345324412452   4   3  10   1
      0.0592044151489953   4   3  10   3
      0.0548145780796447   4   3  10   7
      0.6671458921502037   4   4   1   1
     -0.0125636523694954   4   4   1   3
     -0.0042069788935542   4   4   1   7
      0.6670820515706246   4   4   2   2
     -0.0049101511313371   4   4   2   4
     -0.0162235195158677   4   4   2  10
     -0.0125636523694954   4   4   3   1
      0.5119501394611807   4   4   3   3
     -0.0011351947313109   4   4   3   7
     -0.0049101511313371   4   4   4   2
      0.5453708953383162   4   4   4   4
     -0.0198144150246089   4   4   4  10
      0.5100096682483678   4   4   5   5
      0.5100096682483678   4   4   6   6
     -0.0042069788935542   4   4   7   1
     -0.0011351947313109   4   4   7   3
      0.5570968878592970   4   4   7   7
      0.5358793067768500   4   4   8   8
      0.5358793067768500   4   4   9   9
     -0.0162235195158677   4   4  10   2
     -0.0198144150246089   4   4  10   4
      0.5594683590134891   4   4  10  10
      0.0134691761877468   4   5   1   9
      0.0112814228140549   4   5   2   5
      0.0429261294026106   4   5   3   9
      0.0508736779854052   4   5   4   5
      0.0112814228140549   4   5   5   2
      0.0508736779854052   4   5   5   4
      0.0238357275683828   4   5   5  10
     -0.0391314957826998   4   5   7   9
      0.0134691761877468   4   5   9   1
      0.0429261294026106   4   5   9   3
     -0.0391314957826998   4   5   9   7
      0.0238357275683828   4   5  10   5
      0.0134691761877468   4   6   1   8
      0.0112814228140549   4   6   2   6
      0.0429261294026106   4   6   3   8
      0.0508736779854052   4   6   4   6
      0.0112814228140549   4   6   6   2
      0.0508736779854052   4   6   6   4
      0.0238357275683828   4   6   6  10
     -0.0391314957826998   4   6   7   8
      0.0134691761877468   4   6   8   1
      0.0429261294026106   4   6   8   3
     -0.0391314957826998   4   6   8   7
      0.0238357275683828   4   6  10   6
     -0.2521981419439424   4   7   1   2
     -0.0023235595653562   4   7   1   4
      0.0262451133784978   4   7   1  10
     -0.2521981419439424   4   7   2   1
      0.0138780026892586   4   7   2   3
      0.0148721316445230   4   7   2   7
      0.0138780026892586   4   7   3   2
     -0.0930856358387029   4   7   3   4
     -0.0568077386204880   4   7   3  10
     -0.0023235595653562   4   7   4   1
     -0.0930856358387029   4   7   4   3
      0.2235584888602789   4   7   4   7
     -0.1574223354546989   4   7   5   9
     -0.1574223354546989   4   7   6   8
      0.0148721316445230   4   7   7   2
      0.2235584888602789   4   7   7   4
     -0.1243795456013792   4   7   7  10
     -0.1574223354546989   4   7   8   6
     -0.1574223354546989   4   7   9   5
      0.0262451133784978   4   7  10   1
     -0.0568077386204880   4   7  10   3
     -0.1243795456013792   4   7  10   7
      0.0156085856233268   4   8   1   6
      0.0185326055741243   4   8   2   8
      0.0741012791673987   4   8   3   6
      0.0823649309406123   4   8   4   8
      0.0156085856233268   4   8   6   1
      0.0741012791673987   4   8   6   3
     -0.0374298855477499   4   8   6   7
     -0.0374298855477499   4   8   7   6
      0.0185326055741243   4   8   8   2
      0.0823649309406123   4   8   8   4
      0.0360523940299015   4   8   8  10
      0.0360523940299015   4   8  10   8
      0.0156085856233268   4   9   1   5
      0.0185326055741243   4   9   2   9
      0.0741012791673987   4   9   3   5
      0.0823649309406123   4   9   4   9
      0.0156085856233268   4   9   5   1
      0.0741012791673987   4   9   5   3
     -0.0374298855477499   4   9   5   7
     -0.0374298855477499   4   9   7   5
      0.0185326055741243   4   9   9   2
      0.0823649309406123   4   9   9   4
      0.0360523940299015   4   9   9  10
      0.0360523940299015   4   9  10   9
      0.0491703695678096   4  10   1   1
      0.0028764193326231   4  10   1   3
      0.0122298230153286   4  10   1   7
      0.0492469366909969   4  10   2   2
     -0.0074621473184341   4  10   2   4
      0.0137321928708715   4  10   2  10
      0.0028764193326231   4  10   3   1
      0.0735318763981446   4  10   3   3
      0.0297220625574746   4  10   3   7
     -0.0074621473184341   4  10   4   2
     -0.0198144150246086   4  10   4   4
      0.0479110755727610   4  10   4  10
      0.0416720352854739   4  10   5   5
      0.0416720352854739   4  10   6   6
      0.0122298230153286   4  10   7   1
      0.0297220625574746   4  10   7   3
     -0.0274513191960463   4  10   7   7
      0.0284813814323535   4  10   8   8
      0.0284813814323535   4  10   9   9
      0.0137321928708715   4  10  10   2
      0.0479110755727610   4  10  10   4
      0.0456483257342635   4  10  10  10
      0.0097709748829746   5   1   1   5
      0.0118877268304610   5   1   2   9
      0.0166207301027444   5   1   3   5
      0.0156085856233268   5   1   4   9
      0.0097709748829746   5   1   5   1
      0.0166207301027444   5   1   5   3
     -0.0048610440316565   5   1   5   7
     -0.0048610440316565   5   1   7   5
      0.0118877268304610   5   1   9   2