 &FCI NORB=  20,NELEC=  14,MS2=   0,
  ORBSYM=1,1,5,5,1,1,5,5,3,3,2,2,1,1,6,6,7,7,5,5,
  ISYM=   1,
  IGENERAL=1,
 &END
      2.3068656644476739   1   1   1   1
     -0.0334823771171481   1   1   1   5
     -0.1884897415622997   1   1   1   6
      0.0822858638073302   1   1   1  13
      0.0146742846329393   1   1   1  14
      2.3068656644476722   1   1   2   2
      0.1884897415623014   1   1   2   5
     -0.0334823771171477   1   1   2   6
      0.0146742846329401   1   1   2  13
     -0.0822858638073249   1   1   2  14
      2.3063511607353875   1   1   3   3
     -0.1896633797322826   1   1   3   7
     -0.0265889945786543   1   1   3   8
     -0.0138403455145392   1   1   3  19
     -0.1305349008806200   1   1   3  20
      2.3063511607353862   1   1   4   4
     -0.0265889945786530   1   1   4   7
      0.1896633797323186   1   1   4   8
      0.1305349008805754   1   1   4  19
     -0.0138403455145424   1   1   4  20
     -0.0334823771171481   1   1   5   1
      0.1884897415623014   1   1   5   2
      0.7868840776031917   1   1   5   5
     -0.0000443151122240   1   1   5  13
      0.0655012014723972   1   1   5  14
     -0.1884897415622997   1   1   6   1
     -0.0334823771171477   1   1   6   2
      0.7868840776031913   1   1   6   6
      0.0655012014723967   1   1   6  13
      0.0000443151122240   1   1   6  14
     -0.1896633797322826   1   1   7   3
     -0.0265889945786530   1   1   7   4
      0.6671458921501907   1   1   7   7
     -0.0016542439115565   1   1   7  19
      0.0491425347383813   1   1   7  20
     -0.0265889945786543   1   1   8   3
      0.1896633797323186   1   1   8   4
      0.6671458921502187   1   1   8   8
      0.0491425347384479   1   1   8  19
      0.0016542439115517   1   1   8  20
      0.6879790991819603   1   1   9   9
      0.6879790991819603   1   1  10  10
      0.6879790991819601   1   1  11  11
      0.6879790991819601   1   1  12  12
      0.0822858638073302   1   1  13   1
      0.0146742846329401   1   1  13   2
     -0.0000443151122240   1   1  13   5
      0.0655012014723967   1   1  13   6
      0.6854056843138066   1   1  13  13
      0.0146742846329393   1   1  14   1
     -0.0822858638073249   1   1  14   2
      0.0655012014723972   1   1  14   5
      0.0000443151122240   1   1  14   6
      0.6854056843138061   1   1  14  14
      0.7276833321892707   1   1  15  15
      0.7276833321892707   1   1  16  16
      0.7276833321892711   1   1  17  17
      0.7276833321892711   1   1  18  18
     -0.0138403455145392   1   1  19   3
      0.1305349008805754   1   1  19   4
     -0.0016542439115565   1   1  19   7
      0.0491425347384479   1   1  19   8
      0.8958031735768530   1   1  19  19
     -0.1305349008806200   1   1  20   3
     -0.0138403455145424   1   1  20   4
      0.0491425347383813   1   1  20   7
      0.0016542439115517   1   1  20   8
      0.8958031735768793   1   1  20  20
      1.7039090944482747   1   3   1   3
      0.4541094650441421   1   3   1   4
     -0.1770793515786774   1   3   1   7
      0.0215630100494778   1   3   1   8
      0.0222929459290527   1   3   1  19
     -0.1428373609632476   1   3   1  20
      0.4541094650441412   1   3   2   3
     -1.7039090944482738   1   3   2   4
     -0.0215630100494686   1   3   2   7
     -0.1770793515787170   1   3   2   8
     -0.1428373609632090   1   3   2  19
     -0.0222929459290601   1   3   2  20
      1.7039090944482747   1   3   3   1
      0.4541094650441412   1   3   3   2
      0.0162070238096766   1   3   3   5
     -0.1909898016378879   1   3   3   6
      0.0660108984277109   1   3   3  13
     -0.0055565777385487   1   3   3  14
      0.4541094650441421   1   3   4   1
     -1.7039090944482738   1   3   4   2
     -0.1909898016378888   1   3   4   5
     -0.0162070238096764   1   3   4   6
      0.0055565777385492   1   3   4  13
      0.0660108984277066   1   3   4  14
      0.0162070238096766   1   3   5   3
     -0.1909898016378888   1   3   5   4
      0.0090808329286995   1   3   5   7
     -0.1660665826518232   1   3   5   8
     -0.2186511203933092   1   3   5  19
      0.0045875407766859   1   3   5  20
     -0.1909898016378879   1   3   6   3
     -0.0162070238096764   1   3   6   4
      0.1660665826517602   1   3   6   7
      0.0090808329286964   1   3   6   8
      0.0045875407766866   1   3   6  19
      0.2186511203933556   1   3   6  20
     -0.1770793515786774   1   3   7   1
     -0.0215630100494686   1   3   7   2
      0.0090808329286995   1   3   7   5
      0.1660665826517602   1   3   7   6
     -0.2433195600571589   1   3   7  13
     -0.0134702881657364   1   3   7  14
      0.0215630100494778   1   3   8   1
     -0.1770793515787170   1   3   8   2
     -0.1660665826518232   1   3   8   5
      0.0090808329286964   1   3   8   6
     -0.0134702881657391   1   3   8  13
      0.2433195600571046   1   3   8  14
     -0.2660640030005137   1   3   9  17
      0.0010065811724789   1   3   9  18
      0.0010065811724790   1   3  10  17
      0.2660640030005138   1   3  10  18
      0.2660659070574697   1   3  11  15
      0.2660659070574697   1   3  12  16
      0.0660108984277109   1   3  13   3
      0.0055565777385492   1   3  13   4
     -0.2433195600571589   1   3  13   7
     -0.0134702881657391   1   3  13   8
      0.0040450880636295   1   3  13  19
      0.1867714212525668   1   3  13  20
     -0.0055565777385487   1   3  14   3
      0.0660108984277066   1   3  14   4
     -0.0134702881657364   1   3  14   7
      0.2433195600571046   1   3  14   8
     -0.1867714212526370   1   3  14  19
      0.0040450880636305   1   3  14  20
      0.2660659070574697   1   3  15  11
      0.2660659070574697   1   3  16  12
     -0.2660640030005137   1   3  17   9
      0.0010065811724790   1   3  17  10
      0.0010065811724789   1   3  18   9
      0.2660640030005138   1   3  18  10
      0.0222929459290527   1   3  19   1
     -0.1428373609632090   1   3  19   2
     -0.2186511203933092   1   3  19   5
      0.0045875407766866   1   3  19   6
      0.0040450880636295   1   3  19  13
     -0.1867714212526370   1   3  19  14
     -0.1428373609632476   1   3  20   1
     -0.0222929459290601   1   3  20   2
      0.0045875407766859   1   3  20   5
      0.2186511203933556   1   3  20   6
      0.1867714212525668   1   3  20  13
      0.0040450880636305   1   3  20  14
      0.4541094650441422   1   4   1   3
      0.1210248873690350   1   4   1   4
     -0.0471934857779456   1   4   1   7
      0.0057467660629399   1   4   1   8
      0.0059413015536360   1   4   1  19
     -0.0380676397506642   1   4   1  20
      0.1210248873690348   1   4   2   3
     -0.4541094650441418   1   4   2   4
     -0.0057467660629374   1   4   2   7
     -0.0471934857779561   1   4   2   8
     -0.0380676397506539   1   4   2  19
     -0.0059413015536380   1   4   2  20
      0.4541094650441422   1   4   3   1
      0.1210248873690348   1   4   3   2
      0.0043193401198161   1   4   3   5
     -0.0509007651483610   1   4   3   6
      0.0175925898099613   1   4   3  13
     -0.0014808856602444   1   4   3  14
      0.1210248873690350   1   4   4   1
     -0.4541094650441418   1   4   4   2
     -0.0509007651483612   1   4   4   5
     -0.0043193401198160   1   4   4   6
      0.0014808856602446   1   4   4  13
      0.0175925898099601   1   4   4  14
      0.0043193401198161   1   4   5   3
     -0.0509007651483612   1   4   5   4
      0.0024201362601109   1   4   5   7
     -0.0442584685153915   1   4   5   8
     -0.0582727937990487   1   4   5  19
      0.0012226272485761   1   4   5  20
     -0.0509007651483610   1   4   6   3
     -0.0043193401198160   1   4   6   4
      0.0442584685153747   1   4   6   7
      0.0024201362601101   1   4   6   8
      0.0012226272485763   1   4   6  19
      0.0582727937990610   1   4   6  20
     -0.0471934857779456   1   4   7   1
     -0.0057467660629374   1   4   7   2
      0.0024201362601109   1   4   7   5
      0.0442584685153747   1   4   7   6
     -0.0648471890973211   1   4   7  13
     -0.0035899716556849   1   4   7  14
      0.0057467660629399   1   4   8   1
     -0.0471934857779561   1   4   8   2
     -0.0442584685153915   1   4   8   5
      0.0024201362601101   1   4   8   6
     -0.0035899716556856   1   4   8  13
      0.0648471890973066   1   4   8  14
     -0.0709088192930789   1   4   9  17
      0.0002682643336122   1   4   9  18
      0.0002682643336122   1   4  10  17
      0.0709088192930789   1   4  10  18
      0.0709093267440271   1   4  11  15
      0.0709093267440271   1   4  12  16
      0.0175925898099613   1   4  13   3
      0.0014808856602446   1   4  13   4
     -0.0648471890973211   1   4  13   7
     -0.0035899716556856   1   4  13   8
      0.0010780579683601   1   4  13  19
      0.0497765229770079   1   4  13  20
     -0.0014808856602444   1   4  14   3
      0.0175925898099601   1   4  14   4
     -0.0035899716556849   1   4  14   7
      0.0648471890973066   1   4  14   8
     -0.0497765229770265   1   4  14  19
      0.0010780579683604   1   4  14  20
      0.0709093267440271   1   4  15  11
      0.0709093267440271   1   4  16  12
     -0.0709088192930789   1   4  17   9
      0.0002682643336122   1   4  17  10
      0.0002682643336122   1   4  18   9
      0.0709088192930789   1   4  18  10
      0.0059413015536360   1   4  19   1
     -0.0380676397506539   1   4  19   2
     -0.0582727937990487   1   4  19   5
      0.0012226272485763   1   4  19   6
      0.0010780579683601   1   4  19  13
     -0.0497765229770265   1   4  19  14
     -0.0380676397506642   1   4  20   1
     -0.0059413015536380   1   4  20   2
      0.0012226272485761   1   4  20   5
      0.0582727937990610   1   4  20   6
      0.0497765229770079   1   4  20  13
      0.0010780579683604   1   4  20  14
     -0.0334823771171481   1   5   1   1
      0.0009466749946237   1   5   1   5
      0.0053293266620762   1   5   1   6
     -0.0011304012001821   1   5   1  13
     -0.0002015878328716   1   5   1  14
     -0.0334823771171481   1   5   2   2
     -0.0053293266620762   1   5   2   5
      0.0009466749946237   1   5   2   6
     -0.0002015878328716   1   5   2  13
      0.0011304012001820   1   5   2  14
     -0.0334584313831149   1   5   3   3
      0.0044719402476990   1   5   3   7
      0.0006269233162985   1   5   3   8
      0.0005165615794093   1   5   3  19
      0.0048719386735028   1   5   3  20
     -0.0334584313831149   1   5   4   4
      0.0006269233162985   1   5   4   7
     -0.0044719402477004   1   5   4   8
     -0.0048719386735017   1   5   4  19
      0.0005165615794094   1   5   4  20
      0.0009466749946237   1   5   5   1
     -0.0053293266620762   1   5   5   2
      0.0003536939967960   1   5   5   5
     -0.0000008561163913   1   5   5  13
      0.0012654069778272   1   5   5  14
      0.0053293266620762   1   5   6   1
      0.0009466749946237   1   5   6   2
      0.0003536939967960   1   5   6   6
      0.0012654069778273   1   5   6  13
      0.0000008561163913   1   5   6  14
      0.0044719402476990   1   5   7   3
      0.0006269233162985   1   5   7   4
     -0.0021973460161137   1   5   7   7
     -0.0000169250831481   1   5   7  19
      0.0005027925330380   1   5   7  20
      0.0006269233162985   1   5   8   3
     -0.0044719402477004   1   5   8   4
     -0.0021973460161134   1   5   8   8
      0.0005027925330384   1   5   8  19
      0.0000169250831480   1   5   8  20
     -0.0002647741373033   1   5   9   9
     -0.0002647741373033   1   5  10  10
     -0.0002647741373033   1   5  11  11
     -0.0002647741373033   1   5  12  12
     -0.0011304012001821   1   5  13   1
     -0.0002015878328716   1   5  13   2
     -0.0000008561163913   1   5  13   5
      0.0012654069778273   1   5  13   6
     -0.0015698986920448   1   5  13  13
     -0.0002015878328716   1   5  14   1
      0.0011304012001820   1   5  14   2
      0.0012654069778272   1   5  14   5
      0.0000008561163913   1   5  14   6
     -0.0015698986920448   1   5  14  14
     -0.0010404305396903   1   5  15  15
     -0.0010404305396903   1   5  16  16
     -0.0010404305396903   1   5  17  17
     -0.0010404305396903   1   5  18  18
      0.0005165615794093   1   5  19   3
     -0.0048719386735017   1   5  19   4
     -0.0000169250831481   1   5  19   7
      0.0005027925330384   1   5  19   8
     -0.0009647966629685   1   5  19  19
      0.0048719386735028   1   5  20   3
      0.0005165615794094   1   5  20   4
      0.0005027925330380   1   5  20   7
      0.0000169250831480   1   5  20   8
     -0.0009647966629681   1   5  20  20
     -0.1884897415622996   1   6   1   1
      0.0053293266620762   1   6   1   5
      0.0300015557951930   1   6   1   6
     -0.0063636171750454   1   6   1  13
     -0.0011348429171300   1   6   1  14
     -0.1884897415622995   1   6   2   2
     -0.0300015557951932   1   6   2   5
      0.0053293266620761   1   6   2   6
     -0.0011348429171301   1   6   2  13
      0.0063636171750448   1   6   2  14
     -0.1883549385522375   1   6   3   3
      0.0251748810612114   1   6   3   7
      0.0035292779080480   1   6   3   8
      0.0029079942043305   1   6   3  19
      0.0274266805568471   1   6   3  20
     -0.1883549385522372   1   6   4   4
      0.0035292779080477   1   6   4   7
     -0.0251748810612192   1   6   4   8
     -0.0274266805568412   1   6   4  19
      0.0029079942043309   1   6   4  20
      0.0053293266620762   1   6   5   1
     -0.0300015557951932   1   6   5   2
      0.0019911277450507   1   6   5   5
     -0.0000048195251126   1   6   5  13
      0.0071236350211117   1   6   5  14
      0.0300015557951930   1   6   6   1
      0.0053293266620761   1   6   6   2
      0.0019911277450508   1   6   6   6
      0.0071236350211118   1   6   6  13
      0.0000048195251126   1   6   6  14
      0.0251748810612114   1   6   7   3
      0.0035292779080477   1   6   7   4
     -0.0123700053090939   1   6   7   7
     -0.0000952801092149   1   6   7  19
      0.0028304810700926   1   6   7  20
      0.0035292779080480   1   6   8   3
     -0.0251748810612192   1   6   8   4
     -0.0123700053090923   1   6   8   8
      0.0028304810700944   1   6   8  19
      0.0000952801092148   1   6   8  20
     -0.0014905515381441   1   6   9   9
     -0.0014905515381441   1   6  10  10
     -0.0014905515381441   1   6  11  11
     -0.0014905515381441   1   6  12  12
     -0.0063636171750454   1   6  13   1
     -0.0011348429171301   1   6  13   2
     -0.0000048195251126   1   6  13   5
      0.0071236350211118   1   6  13   6
     -0.0088377774883541   1   6  13  13
     -0.0011348429171300   1   6  14   1
      0.0063636171750448   1   6  14   2
      0.0071236350211117   1   6  14   5
      0.0000048195251126   1   6  14   6
     -0.0088377774883541   1   6  14  14
     -0.0058571254619588   1   6  15  15
     -0.0058571254619588   1   6  16  16
     -0.0058571254619588   1   6  17  17
     -0.0058571254619588   1   6  18  18
      0.0029079942043305   1   6  19   3
     -0.0274266805568412   1   6  19   4
     -0.0000952801092149   1   6  19   7
      0.0028304810700944   1   6  19   8
     -0.0054313429726579   1   6  19  19
      0.0274266805568471   1   6  20   3
      0.0029079942043309   1   6  20   4
      0.0028304810700926   1   6  20   7
      0.0000952801092148   1   6  20   8
     -0.0054313429726559   1   6  20  20
     -0.1770793515786774   1   7   1   3
     -0.0471934857779456   1   7   1   4
      0.0282960111975599   1   7   1   7
     -0.0034456144568722   1   7   1   8
     -0.0022687512549634   1   7   1  19
      0.0145365463574183   1   7   1  20
     -0.0471934857779454   1   7   2   3
      0.1770793515786773   1   7   2   4
      0.0034456144568713   1   7   2   7
      0.0282960111975638   1   7   2   8
      0.0145365463574115   1   7   2  19
      0.0022687512549647   1   7   2  20
     -0.1770793515786774   1   7   3   1
     -0.0471934857779454   1   7   3   2
     -0.0021835357808033   1   7   3   5
      0.0257316254077360   1   7   3   6
     -0.0146236337696349   1   7   3  13
      0.0012309688217625   1   7   3  14
     -0.0471934857779456   1   7   4   1
      0.1770793515786773   1   7   4   2
      0.0257316254077361   1   7   4   5
      0.0021835357808033   1   7   4   6
     -0.0012309688217626   1   7   4  13
     -0.0146236337696343   1   7   4  14
     -0.0021835357808033   1   7   5   3
      0.0257316254077361   1   7   5   4
     -0.0002617160383261   1   7   5   7
      0.0047861565619861   1   7   5   8
      0.0113618676138880   1   7   5  19
     -0.0002383844678420   1   7   5  20
      0.0257316254077360   1   7   6   3
      0.0021835357808033   1   7   6   4
     -0.0047861565619828   1   7   6   7
     -0.0002617160383260   1   7   6   8
     -0.0002383844678420   1   7   6  19
     -0.0113618676138892   1   7   6  20
      0.0282960111975599   1   7   7   1
      0.0034456144568713   1   7   7   2
     -0.0002617160383261   1   7   7   5
     -0.0047861565619828   1   7   7   6
     -0.0023029955333938   1   7   7  13
     -0.0001274949431601   1   7   7  14
     -0.0034456144568722   1   7   8   1
      0.0282960111975638   1   7   8   2
      0.0047861565619861   1   7   8   5
     -0.0002617160383260   1   7   8   6
     -0.0001274949431601   1   7   8  13
      0.0023029955333944   1   7   8  14
      0.0027260422348986   1   7   9  17
     -0.0000103132432726   1   7   9  18
     -0.0000103132432726   1   7  10  17
     -0.0027260422348986   1   7  10  18
     -0.0027260617435117   1   7  11  15
     -0.0027260617435117   1   7  12  16
     -0.0146236337696349   1   7  13   3
     -0.0012309688217626   1   7  13   4
     -0.0023029955333938   1   7  13   7
     -0.0001274949431601   1   7  13   8
     -0.0000367184039844   1   7  13  19
     -0.0016953768102019   1   7  13  20
      0.0012309688217625   1   7  14   3
     -0.0146236337696343   1   7  14   4
     -0.0001274949431601   1   7  14   7
      0.0023029955333944   1   7  14   8
      0.0016953768102012   1   7  14  19
     -0.0000367184039844   1   7  14  20
     -0.0027260617435117   1   7  15  11
     -0.0027260617435117   1   7  16  12
      0.0027260422348986   1   7  17   9
     -0.0000103132432726   1   7  17  10
     -0.0000103132432726   1   7  18   9
     -0.0027260422348986   1   7  18  10
     -0.0022687512549634   1   7  19   1
      0.0145365463574115   1   7  19   2
      0.0113618676138880   1   7  19   5
     -0.0002383844678420   1   7  19   6
     -0.0000367184039844   1   7  19  13
      0.0016953768102012   1   7  19  14
      0.0145365463574183   1   7  20   1
      0.0022687512549647   1   7  20   2
     -0.0002383844678420   1   7  20   5
     -0.0113618676138892   1   7  20   6
     -0.0016953768102019   1   7  20  13
     -0.0000367184039844   1   7  20  14
      0.0215630100494778   1   8   1   3
      0.0057467660629398   1   8   1   4
     -0.0034456144568722   1   8   1   7
      0.0004195735894546   1   8   1   8
      0.0002762665758285   1   8   1  19
     -0.0017701199625788   1   8   1  20
      0.0057467660629398   1   8   2   3
     -0.0215630100494778   1   8   2   4
     -0.0004195735894545   1   8   2   7
     -0.0034456144568727   1   8   2   8
     -0.0017701199625779   1   8   2  19
     -0.0002762665758287   1   8   2  20
      0.0215630100494778   1   8   3   1
      0.0057467660629398   1   8   3   2
      0.0002658898599137   1   8   3   5
     -0.0031333483678922   1   8   3   6
      0.0017807246249954   1   8   3  13
     -0.0001498954724964   1   8   3  14
      0.0057467660629398   1   8   4   1
     -0.0215630100494778   1   8   4   2
     -0.0031333483678923   1   8   4   5
     -0.0002658898599137   1   8   4   6
      0.0001498954724964   1   8   4  13
      0.0017807246249953   1   8   4  14
      0.0002658898599137   1   8   5   3
     -0.0031333483678923   1   8   5   4
      0.0000318692468333   1   8   5   7
     -0.0005828118361878   1   8   5   8
     -0.0013835383027711   1   8   5  19
      0.0000290281539315   1   8   5  20
     -0.0031333483678922   1   8   6   3
     -0.0002658898599137   1   8   6   4
      0.0005828118361874   1   8   6   7
      0.0000318692468333   1   8   6   8
      0.0000290281539315   1   8   6  19
      0.0013835383027712   1   8   6  20
     -0.0034456144568722   1   8   7   1
     -0.0004195735894545   1   8   7   2
      0.0000318692468333   1   8   7   5
      0.0005828118361874   1   8   7   6
      0.0002804365127131   1   8   7  13
      0.0000155251005614   1   8   7  14
      0.0004195735894546   1   8   8   1
     -0.0034456144568727   1   8   8   2
     -0.0005828118361878   1   8   8   5
      0.0000318692468333   1   8   8   6
      0.0000155251005614   1   8   8  13
     -0.0002804365127131   1   8   8  14
     -0.0003319510467056   1   8   9  17
      0.0000012558469768   1   8   9  18
      0.0000012558469768   1   8  10  17
      0.0003319510467056   1   8  10  18
      0.0003319534222758   1   8  11  15
      0.0003319534222758   1   8  12  16
      0.0017807246249954   1   8  13   3
      0.0001498954724964   1   8  13   4
      0.0002804365127131   1   8  13   7
      0.0000155251005614   1   8  13   8
      0.0000044712119570   1   8  13  19
      0.0002064465838066   1   8  13  20
     -0.0001498954724964   1   8  14   3
      0.0017807246249953   1   8  14   4
      0.0000155251005614   1   8  14   7
     -0.0002804365127131   1   8  14   8
     -0.0002064465838065   1   8  14  19
      0.0000044712119570   1   8  14  20
      0.0003319534222758   1   8  15  11
      0.0003319534222758   1   8  16  12
     -0.0003319510467056   1   8  17   9
      0.0000012558469768   1   8  17  10
      0.0000012558469768   1   8  18   9
      0.0003319510467056   1   8  18  10
      0.0002762665758285   1   8  19   1
     -0.0017701199625779   1   8  19   2
     -0.0013835383027711   1   8  19   5
      0.0000290281539315   1   8  19   6
      0.0000044712119570   1   8  19  13
     -0.0002064465838065   1   8  19  14
     -0.0017701199625788   1   8  20   1
     -0.0002762665758287   1   8  20   2
      0.0000290281539315   1   8  20   5
      0.0013835383027712   1   8  20   6
      0.0002064465838066   1   8  20  13
      0.0000044712119570   1   8  20  14
      0.0003007964090890   1   9   1   9
      0.0016877783261959   1   9   1  10
     -0.0016877783261959   1   9   2   9
      0.0003007964090890   1   9   2  10
      0.0001830430481626   1   9   3  17
      0.0020777216454354   1   9   3  18
     -0.0020777216454354   1   9   4  17
      0.0001830430481626   1   9   4  18
      0.0029162006507873   1   9   5   9
     -0.0000016545293258   1   9   5  10
      0.0000016545293258   1   9   6   9
      0.0029162006507873   1   9   6  10
     -0.0001407346053861   1   9   7  17
      0.0027349961512757   1   9   7  18
      0.0027349961512763   1   9   8  17
      0.0001407346053861   1   9   8  18
      0.0003007964090890   1   9   9   1
     -0.0016877783261959   1   9   9   2
      0.0029162006507873   1   9   9   5
      0.0000016545293258   1   9   9   6
     -0.0008528976692379   1   9   9  14
      0.0016877783261959   1   9  10   1
      0.0003007964090890   1   9  10   2
     -0.0000016545293258   1   9  10   5
      0.0029162006507873   1   9  10   6
     -0.0008528976692379   1   9  10  13
     -0.0008528976692379   1   9  13  10
     -0.0008528976692379   1   9  14   9
      0.0001830430481626   1   9  17   3
     -0.0020777216454354   1   9  17   4
     -0.0001407346053861   1   9  17   7
      0.0027349961512763   1   9  17   8
      0.0019503157624700   1   9  17  19
     -0.0000346454786240   1   9  17  20
      0.0020777216454354   1   9  18   3
      0.0001830430481626   1   9  18   4
      0.0027349961512757   1   9  18   7
      0.0001407346053861   1   9  18   8
      0.0000346454786240   1   9  18  19
      0.0019503157624708   1   9  18  20
      0.0019503157624700   1   9  19  17
      0.0000346454786240   1   9  19  18
     -0.0000346454786240   1   9  20  17
      0.0019503157624708   1   9  20  18
      0.0016877783261959   1  10   1   9
      0.0094701784738856   1  10   1  10
     -0.0094701784738856   1  10   2   9
      0.0016877783261959   1  10   2  10
      0.0010270604306260   1  10   3  17
      0.0116581629802517   1  10   3  18
     -0.0116581629802518   1  10   4  17
      0.0010270604306260   1  10   4  18
      0.0163628956480692   1  10   5   9
     -0.0000092836172631   1  10   5  10
      0.0000092836172631   1  10   6   9
      0.0163628956480692   1  10   6  10
     -0.0007896663974007   1  10   7  17
      0.0153461513730593   1  10   7  18
      0.0153461513730624   1  10   8  17
      0.0007896663974005   1  10   8  18
      0.0016877783261959   1  10   9   1
     -0.0094701784738856   1  10   9   2
      0.0163628956480692   1  10   9   5
      0.0000092836172631   1  10   9   6
      0.0000005225737662   1  10   9  13
     -0.0047856362546431   1  10   9  14
      0.0094701784738856   1  10  10   1
      0.0016877783261959   1  10  10   2
     -0.0000092836172631   1  10  10   5
      0.0163628956480692   1  10  10   6
     -0.0047856362546431   1  10  10  13
     -0.0000005225737662   1  10  10  14
      0.0000005225737662   1  10  13   9
     -0.0047856362546431   1  10  13  10
     -0.0047856362546431   1  10  14   9
     -0.0000005225737662   1  10  14  10
      0.0010270604306260   1  10  17   3
     -0.0116581629802518   1  10  17   4
     -0.0007896663974007   1  10  17   7
      0.0153461513730624   1  10  17   8
      0.0109432844730574   1  10  17  19
     -0.0001943968948941   1  10  17  20
      0.0116581629802517   1  10  18   3
      0.0010270604306260   1  10  18   4
      0.0153461513730593   1  10  18   7
      0.0007896663974005   1  10  18   8
      0.0001943968948942   1  10  18  19
      0.0109432844730619   1  10  18  20
      0.0109432844730574   1  10  19  17
      0.0001943968948942   1  10  19  18
     -0.0001943968948941   1  10  20  17
      0.0109432844730619   1  10  20  18
      0.0002965382263868   1  11   1  11
      0.0016761660544703   1  11   1  12
     -0.0016761660544703   1  11   2  11
      0.0002965382263868   1  11   2  12
     -0.0001765489831459   1  11   3  15
      0.0020634137156669   1  11   3  16
      0.0020634137156669   1  11   4  15
      0.0001765489831459   1  11   4  16
      0.0028954854417544   1  11   5  11
      0.0000020224153443   1  11   5  12
     -0.0000020224153443   1  11   6  11
      0.0028954854417544   1  11   6  12
      0.0001465705821125   1  11   7  15
      0.0027152079820633   1  11   7  16
     -0.0027152079820638   1  11   8  15
      0.0001465705821125   1  11   8  16
      0.0002965382263868   1  11  11   1
     -0.0016761660544703   1  11  11   2
      0.0028954854417544   1  11  11   5
     -0.0000020224153443   1  11  11   6
      0.0000011644254691   1  11  11  13
     -0.0008468383919288   1  11  11  14
      0.0016761660544703   1  11  12   1
      0.0002965382263868   1  11  12   2
      0.0000020224153443   1  11  12   5
      0.0028954854417544   1  11  12   6
     -0.0008468383919288   1  11  12  13
     -0.0000011644254691   1  11  12  14
      0.0000011644254691   1  11  13  11
     -0.0008468383919288   1  11  13  12
     -0.0008468383919288   1  11  14  11
     -0.0000011644254691   1  11  14  12
     -0.0001765489831459   1  11  15   3
      0.0020634137156669   1  11  15   4
      0.0001465705821125   1  11  15   7
     -0.0027152079820638   1  11  15   8
     -0.0019363691378982   1  11  15  19
      0.0000392740772804   1  11  15  20
      0.0020634137156669   1  11  16   3
      0.0001765489831459   1  11  16   4
      0.0027152079820633   1  11  16   7
      0.0001465705821125   1  11  16   8
      0.0000392740772804   1  11  16  19
      0.0019363691378990   1  11  16  20
     -0.0019363691378982   1  11  19  15
      0.0000392740772804   1  11  19  16
      0.0000392740772804   1  11  20  15
      0.0019363691378990   1  11  20  16
      0.0016761660544703   1  12   1  11
      0.0094744366565878   1  12   1  12
     -0.0094744366565878   1  12   2  11
      0.0016761660544703   1  12   2  12
     -0.0009979334405083   1  12   3  15
      0.0116633328143599   1  12   3  16
      0.0116633328143599   1  12   4  15
      0.0009979334405083   1  12   4  16
      0.0163665725927393   1  12   5  11
      0.0000114315917698   1  12   5  12
     -0.0000114315917698   1  12   6  11
      0.0163665725927393   1  12   6  12
      0.0008284821734939   1  12   7  15
      0.0153475641431297   1  12   7  16
     -0.0153475641431328   1  12   8  15
      0.0008284821734937   1  12   8  16
      0.0016761660544703   1  12  11   1
     -0.0094744366565878   1  12  11   2
      0.0163665725927393   1  12  11   5
     -0.0000114315917698   1  12  11   6
      0.0000065818510753   1  12  11  13
     -0.0047867075468435   1  12  11  14
      0.0094744366565878   1  12  12   1
      0.0016761660544703   1  12  12   2
      0.0000114315917698   1  12  12   5
      0.0163665725927393   1  12  12   6
     -0.0047867075468435   1  12  12  13
     -0.0000065818510753   1  12  12  14
      0.0000065818510753   1  12  13  11
     -0.0047867075468435   1  12  13  12
     -0.0047867075468435   1  12  14  11
     -0.0000065818510753   1  12  14  12
     -0.0009979334405083   1  12  15   3
      0.0116633328143599   1  12  15   4
      0.0008284821734939   1  12  15   7
     -0.0153475641431328   1  12  15   8
     -0.0109452203090854   1  12  15  19
      0.0002219945669741   1  12  15  20
      0.0116633328143599   1  12  16   3
      0.0009979334405083   1  12  16   4
      0.0153475641431297   1  12  16   7
      0.0008284821734937   1  12  16   8
      0.0002219945669741   1  12  16  19
      0.0109452203090898   1  12  16  20
     -0.0109452203090854   1  12  19  15
      0.0002219945669741   1  12  19  16
      0.0002219945669741   1  12  20  15
      0.0109452203090898   1  12  20  16