 &FCI NORB=  10,NELEC=14,MS2=0,
  ORBSYM=1,1,1,5,5,5,2,6,3,7,
  ISYM=1,
 &END
  2.3068656644476713   1   1   1   1
 -0.1914404665989671   2   1   1   1
  0.0309482307898146   2   1   2   1
  0.7868840776032341   2   2   1   1
  0.0020222979850980   2   2   2   1
  0.7472181500304195   2   2   2   2
  0.0835840775029290   3   1   1   1
 -0.0065652065104524   3   1   2   1
  0.0254970389618013   3   1   2   2
  0.0142698628276405   3   1   3   1
  0.0655012164631514   3   2   1   1
  0.0072351540891893   3   2   2   1
  0.1088646551953097   3   2   2   2
  0.0123610459110959   3   2   3   1
  0.0516460777054306   3   2   3   2
  0.6854056843137644   3   3   1   1
 -0.0089761290563944   3   3   2   1
  0.5424367785711169   3   3   2   2
 -0.0027000281031184   3   3   3   1
  0.0161748568267079   3   3   3   2
  0.5849179963614900   3   3   3   3
  1.8249339818173056   4   1   4   1
 -0.1983666215425378   4   2   4   1
  0.0306870405689228   4   2   4   2
  0.0685565934536271   4   3   4   1
 -0.0070242229984531   4   3   4   2
  0.0133156519880513   4   3   4   3
  2.3063511607353835   4   4   1   1
 -0.1913035533063315   4   4   2   1
  0.7869699869626606   4   4   2   2
  0.0836430878921008   4   4   3   1
  0.0655591199708389   4   4   3   2
  0.6853423268081246   4   4   3   3
  2.3058381063772777   4   4   4   4
 -0.1846139501174052   5   1   4   1
  0.0260148600619242   5   1   4   2
 -0.0147837545201334   5   1   4   3
  0.0287155847870024   5   1   5   1
  0.1721198434088878   5   2   4   1
 -0.0083001343067636   5   2   4   2
 -0.0007778777746966   5   2   4   3
 -0.0048287136181138   5   2   5   1
  0.0564762674242320   5   2   5   2
 -0.2521981419440940   5   3   4   1
  0.0138780026892697   5   3   4   2
  0.0148721316445205   5   3   4   3
 -0.0023235595653674   5   3   5   1
 -0.0930856358386505   5   3   5   2
  0.2235584888604642   5   3   5   3
 -0.1915180728917128   5   4   1   1
  0.0258190185991087   5   4   2   1
 -0.0182719141873295   5   4   2   2
 -0.0152157617155421   5   4   3   1
 -0.0047751805133617   5   4   3   2
 -0.0037242649403742   5   4   3   3
 -0.1914693443789735   5   4   4   4
  0.0289114823978961   5   4   5   4
  0.6671458921501523   5   5   1   1
 -0.0125636523695002   5   5   2   1
  0.5119501394611043   5   5   2   2
 -0.0042069788935633   5   5   3   1
 -0.0011351947313280   5   5   3   2
  0.5570968878593253   5   5   3   3
  0.6670820515705731   5   5   4   4
 -0.0049101511313210   5   5   5   4
  0.5453708953383568   5   5   5   5
 -0.1496126043670999   6   1   4   1
  0.0275389835722714   6   1   4   2
  0.0050309140036307   6   1   4   3
  0.0148212030605175   6   1   5   1
 -0.0081345324412436   6   1   5   2
  0.0262451133785052   6   1   5   3
  0.0359352673962327   6   1   6   1
  0.2263328771836803   6   2   4   1
 -0.0049951236176296   6   2   4   2
  0.0109234140588449   6   2   4   3
 -0.0114483135744580   6   2   5   1
  0.0592044151489688   6   2   5   2
 -0.0568077386206227   6   2   5   3
  0.0059622326222117   6   2   6   1
  0.1066529235385533   6   2   6   2
  0.1933359536732492   6   3   4   1
 -0.0068262963242782   6   3   4   2
 -0.0034049139882242   6   3   4   3
 -0.0017083006039458   6   3   5   1
  0.0548145780795091   6   3   5   2
 -0.1243795456013103   6   3   5   3
 -0.0095429778972955   6   3   6   1
  0.0588860809162310   6   3   6   2
  0.0918150517246188   6   3   6   3
 -0.1312665818550152   6   4   1   1
  0.0280121734066513   6   4   2   1
  0.0221338765998186   6   4   2   2
  0.0061211971162323   6   4   3   1
  0.0167871524329575   6   4   3   2
 -0.0121185370236888   6   4   3   3
 -0.1310504915874429   6   4   4   4
  0.0142909409686544   6   4   5   4
 -0.0162235195158852   6   4   5   5
  0.0370448424660068   6   4   6   4
  0.0491703695676939   6   5   1   1
  0.0028764193326231   6   5   2   1
  0.0735318763980534   6   5   2   2
  0.0122298230153137   6   5   3   1
  0.0297220625573974   6   5   3   2
 -0.0274513191960841   6   5   3   3
  0.0492469366908812   6   5   4   4
 -0.0074621473184327   6   5   5   4
 -0.0198144150246648   6   5   5   5
  0.0137321928708522   6   5   6   4
  0.0479110755726948   6   5   6   5
  0.8958031735769204   6   6   1   1
 -0.0055163682878684   6   6   2   1
  0.7241338005118848   6   6   2   2
  0.0228800525233002   6   6   3   1
  0.0875399859207344   6   6   3   2
  0.5940888591770170   6   6   3   3
  0.8958777131362643   6   6   4   4
 -0.0209471183537754   6   6   5   4
  0.5594683590134211   6   6   5   5
  0.0135347808946519   6   6   6   4
  0.0456483257342075   6   6   6   5
  0.7600248802188909   6   6   6   6
  0.0097709748829747   7   1   7   1
  0.0166207301027432   7   2   7   1
  0.1049701474299210   7   2   7   2
 -0.0048610440316616   7   3   7   1
 -0.0138451158268103   7   3   7   2
  0.0280605436765387   7   3   7   3
  0.0092697615524784   7   4   7   4
  0.0112814228140506   7   5   7   4
  0.0508736779853804   7   5   7   5
  0.0085936714827746   7   6   7   4
  0.0238357275683907   7   6   7   5
  0.0353344579352976   7   6   7   6
  0.6879790991819597   7   7   1   1
 -0.0015138854750741   7   7   2   1
  0.6171757554629016   7   7   2   2
  0.0089481409782630   7   7   3   1
  0.0469597596578655   7   7   3   2
  0.5177651312330540   7   7   3   3
  0.6880230406586383   7   7   4   4
 -0.0077286781257323   7   7   5   4
  0.5100096682483241   7   7   5   5
  0.0064394622200818   7   7   6   4
  0.0416720352854164   7   7   6   5
  0.6199586921604615   7   7   6   6
  0.5880333086470342   7   7   7   7
  0.0113100667547958   8   1   7   4
  0.0134691761877417   8   1   7   5
  0.0098885596923784   8   1   7   6
  0.0138173617685866   8   1   8   1
  0.0114368254327461   8   2   7   4
  0.0429261294025809   8   2   7   5
  0.0340154290382700   8   2   7   6
  0.0134411058431988   8   2   8   1
  0.0442491710075411   8   2   8   2
 -0.0070266882478234   8   3   7   4
 -0.0391314957827107   8   3   7   5
 -0.0044157670280914   8   3   7   6
 -0.0086087414710032   8   3   8   1
 -0.0249968565561636   8   3   8   2
  0.0381695745788306   8   3   8   3
  0.0118877268304611   8   4   7   1
  0.0188479082632019   8   4   7   2
 -0.0062182045282265   8   4   7   3
  0.0144985042960207   8   4   8   4
  0.0156085856233212   8   5   7   1
  0.0741012791673553   8   5   7   2
 -0.0374298855477728   8   5   7   3
  0.0185326055741180   8   5   8   4
  0.0823649309405749   8   5   8   5
  0.0111174726036887   8   6   7   1
  0.0616291882202446   8   6   7   2
  0.0004407744590801   8   6   7   3
  0.0126087805288304   8   6   8   4
  0.0360523940299195   8   6   8   5
  0.0471636102712841   8   6   8   6
  0.2753528636451866   8   7   4   1
 -0.0088403176516265   8   7   4   2
 -0.0037820846331233   8   7   4   3
 -0.0027461984094339   8   7   5   1
  0.0966923496451221   8   7   5   2
 -0.1574223354547757   8   7   5   3
 -0.0099113090131388   8   7   6   1
  0.1021480423469142   8   7   6   2
  0.0921326982943438   8   7   6   3
  0.1876617882079626   8   7   8   7
  0.7276833321892696   8   8   1   1
 -0.0059488162171167   8   8   2   1
  0.5960361351608697   8   8   2   2
  0.0053577665102209   8   8   3   1
  0.0292283091812368   8   8   3   2
  0.5405366748405592   8   8   3   3
  0.7277125780396605   8   8   4   4
 -0.0077432527464055   8   8   5   4
  0.5358793067768194   8   8   5   5
 -0.0003361779982891   8   8   6   4
  0.0284813814323076   8   8   6   5
  0.6213509929541453   8   8   6   6
  0.5870791941704944   8   8   7   7
  0.6047495644207154   8   8   8   8
  0.0097709748829747   9   1   9   1
  0.0166207301027432   9   2   9   1
  0.1049701474299210   9   2   9   2
 -0.0048610440316616   9   3   9   1
 -0.0138451158268103   9   3   9   2
  0.0280605436765387   9   3   9   3
  0.0092697615524784   9   4   9   4
  0.0112814228140506   9   5   9   4
  0.0508736779853804   9   5   9   5
  0.0085936714827746   9   6   9   4
  0.0238357275683907   9   6   9   5
  0.0353344579352976   9   6   9   6
  0.0239905549573628   9   7   9   7
  0.0189799387287248   9   8   9   8
  0.6879790991819597   9   9   1   1
 -0.0015138854750741   9   9   2   1
  0.6171757554629016   9   9   2   2
  0.0089481409782630   9   9   3   1
  0.0469597596578655   9   9   3   2
  0.5177651312330540   9   9   3   3
  0.6880230406586383   9   9   4   4
 -0.0077286781257323   9   9   5   4
  0.5100096682483241   9   9   5   5
  0.0064394622200818   9   9   6   4
  0.0416720352854164   9   9   6   5
  0.6199586921604615   9   9   6   6
  0.5400521987323086   9   9   7   7
  0.5413239563182571   9   9   8   8
  0.5880333086470342   9   9   9   9
  0.0113100667547958  10   1   9   4
  0.0134691761877417  10   1   9   5
  0.0098885596923784  10   1   9   6
  0.0138173617685866  10   1  10   1
  0.0114368254327461  10   2   9   4
  0.0429261294025809  10   2   9   5
  0.0340154290382700  10   2   9   6
  0.0134411058431988  10   2  10   1
  0.0442491710075411  10   2  10   2
 -0.0070266882478234  10   3   9   4
 -0.0391314957827107  10   3   9   5
 -0.0044157670280914  10   3   9   6
 -0.0086087414710032  10   3  10   1
 -0.0249968565561636  10   3  10   2
  0.0381695745788306  10   3  10   3
  0.0118877268304611  10   4   9   1
  0.0188479082632019  10   4   9   2
 -0.0062182045282265  10   4   9   3
  0.0144985042960207  10   4  10   4
  0.0156085856233212  10   5   9   1
  0.0741012791673553  10   5   9   2
 -0.0374298855477728  10   5   9   3
  0.0185326055741180  10   5  10   4
  0.0823649309405749  10   5  10   5
  0.0111174726036887  10   6   9   1
  0.0616291882202446  10   6   9   2
  0.0004407744590801  10   6   9   3
  0.0126087805288304  10   6  10   4
  0.0360523940299195  10   6  10   5
  0.0471636102712841  10   6  10   6
  0.0189799387287248  10   7   9   8
  0.0189799387287248  10   7  10   7
  0.0228776189261184  10   8   9   7
  0.0250683630660331  10   8  10   8
  0.2753528636451866  10   9   4   1
 -0.0088403176516265  10   9   4   2
 -0.0037820846331233  10   9   4   3
 -0.0027461984094339  10   9   5   1
  0.0966923496451221  10   9   5   2
 -0.1574223354547757  10   9   5   3
 -0.0099113090131388  10   9   6   1
  0.1021480423469142  10   9   6   2
  0.0921326982943438  10   9   6   3
  0.1497019107505128  10   9   8   7
  0.1876617882079626  10   9  10   9
  0.7276833321892696  10  10   1   1
 -0.0059488162171167  10  10   2   1
  0.5960361351608697  10  10   2   2
  0.0053577665102209  10  10   3   1
  0.0292283091812368  10  10   3   2
  0.5405366748405592  10  10   3   3
  0.7277125780396605  10  10   4   4
 -0.0077432527464055  10  10   5   4
  0.5358793067768194  10  10   5   5
 -0.0003361779982891  10  10   6   4
  0.0284813814323076  10  10   6   5
  0.6213509929541453  10  10   6   6
  0.5413239563182572  10  10   7   7
  0.5546128382886489  10  10   8   8
  0.5870791941704944  10  10   9   9
  0.6047495644207154  10  10  10  10
-27.5491548855638975   1   1   0   0
  0.4635675509345934   2   1   0   0
 -9.5331426466818527   2   2   0   0
 -0.2627968093193830   3   1   0   0
 -0.7070941310597698   3   2   0   0
 -7.7764865279832325   3   3   0   0
  0.0000000000000053   4   1   0   0
 -0.0000000000000086   4   2   0   0
-27.5483449647807426   4   4   0   0
  0.0000000000000051   5   1   0   0
  0.0000000000000011   5   2   0   0
  0.4988436049004968   5   4   0   0
 -7.6753825049340252   5   5   0   0
  0.0000000000000215   6   1   0   0
 -0.0000000000000040   6   2   0   0
  0.0000000000000043   6   3   0   0
  0.2319547199708798   6   4   0   0
 -0.4242609843251872   6   5   0   0
 -8.3109980205776122   6   6   0   0
 -8.0544994260698743   7   7   0   0
 -7.8325745996667289   8   8   0   0
 -8.0544994260698743   9   9   0   0
 -7.8325745996667289  10  10   0   0
 23.5724393955272724   0   0   0   0
