 &FCI NORB=  10,NELEC=  10,MS2=   0,
  ORBSYM=1,1,1,1,1,1,1,1,1,1,
  ISYM=   1,
 &END
  0.3477077076410514   1   1   1   1
  0.1227399919054644   2   1   2   1
  0.2779496469852176   2   2   1   1
  0.3021586527992990   2   2   2   2
 -0.0687027246641779   3   1   1   1
  0.0218574031197452   3   1   2   2
  0.0873278950803474   3   1   3   1
  0.0773353545931173   3   2   2   1
  0.1026215239409954   3   2   3   2
  0.2713354354042860   3   3   1   1
  0.2647388624542948   3   3   2   2
 -0.0074996811907339   3   3   3   1
  0.2876940462719286   3   3   3   3
 -0.0483452735340644   4   1   2   1
  0.0192016949161223   4   1   3   2
  0.0649279517042754   4   1   4   1
 -0.0723203293575211   4   2   1   1
 -0.0185323651964778   4   2   2   2
  0.0522829063416790   4   2   3   1
  0.0140199186147430   4   2   3   3
  0.0811621721838913   4   2   4   2
  0.0733441497043806   4   3   2   1
  0.0808223396732068   4   3   3   2
  0.0043587274887325   4   3   4   1
  0.0991738708061229   4   3   4   3
  0.2646697952374508   4   4   1   1
  0.2683641748237024   4   4   2   2
  0.0025255481601612   4   4   3   1
  0.2649755284811420   4   4   3   3
 -0.0025177146773589   4   4   4   2
  0.2808061800644628   4   4   4   4
 -0.0018847350092789   5   1   1   1
  0.0383577635192129   5   1   2   2
  0.0384665856463315   5   1   3   1
 -0.0221285666409287   5   1   3   3
 -0.0242185440866391   5   1   4   2
  0.0061598664212402   5   1   4   4
  0.0620030199743791   5   1   5   1
  0.0511421609201966   5   2   2   1
  0.0049762861186265   5   2   3   2
 -0.0466940369383336   5   2   4   1
 -0.0180476996914901   5   2   4   3
  0.0647892336495350   5   2   5   2
  0.0757180734708651   5   3   1   1
  0.0134364960717987   5   3   2   2
 -0.0606160677889140   5   3   3   1
  0.0103689025429178   5   3   3   3
 -0.0600556637610088   5   3   4   2
 -0.0112919027919631   5   3   4   4
 -0.0065848495546105   5   3   5   1
  0.0774916274268974   5   3   5   3
 -0.0871159449715094   5   4   2   1
 -0.0829831136569220   5   4   3   2
  0.0086557863387832   5   4   4   1
 -0.0831246649960600   5   4   4   3
 -0.0124932756598249   5   4   5   2
  0.1010799525312998   5   4   5   4
  0.2918223690762948   5   5   1   1
  0.2735855730476243   5   5   2   2
 -0.0191723280824625   5   5   3   1
  0.2695836823911129   5   5   3   3
 -0.0242271963955479   5   5   4   2
  0.2683617711517425   5   5   4   4
  0.0029299470719129   5   5   5   1
  0.0269756915299334   5   5   5   3
  0.2899845689585449   5   5   5   5
  0.0040621978985361   6   1   2   1
 -0.0296891320800746   6   1   3   2
 -0.0299180137995689   6   1   4   1
  0.0148566838313378   6   1   4   3
 -0.0133376391169688   6   1   5   2
  0.0022988075222623   6   1   5   4
  0.0529084167042918   6   1   6   1
  0.0045036938293194   6   2   1   1
 -0.0368001523058150   6   2   2   2
 -0.0393444125481697   6   2   3   1
 -0.0054066728293438   6   2   3   3
 -0.0050495348727180   6   2   4   2
  0.0093226832171749   6   2   4   4
 -0.0323875924659028   6   2   5   1
 -0.0075483336689936   6   2   5   3
 -0.0043667028894467   6   2   5   5
  0.0531288392712728   6   2   6   2
 -0.0517319044838784   6   3   2   1
 -0.0096862601359098   6   3   3   2
  0.0413032688854214   6   3   4   1
 -0.0045222818946175   6   3   4   3
 -0.0415791793389138   6   3   5   2
 -0.0007847585747590   6   3   5   4
 -0.0052154971425209   6   3   6   1
  0.0590246263067257   6   3   6   3
 -0.0707912418297836   6   4   1   1
 -0.0155309552163080   6   4   2   2
  0.0534415077076537   6   4   3   1
 -0.0111491276010941   6   4   3   3
  0.0538618792788105   6   4   4   2
 -0.0057030789330730   6   4   4   4
  0.0034935546968997   6   4   5   1
 -0.0543747988026541   6   4   5   3
 -0.0117922711809612   6   4   5   5
 -0.0081836972545260   6   4   6   2
  0.0672836842123387   6   4   6   4
 -0.0688914090346436   6   5   2   1
 -0.0666159359395456   6   5   3   2
  0.0054932492200462   6   5   4   1
 -0.0664394324868485   6   5   4   3
 -0.0077638004631540   6   5   5   2
  0.0685660993460960   6   5   5   4
  0.0015200590597082   6   5   6   1
  0.0119985701534206   6   5   6   3
  0.0780253320456052   6   5   6   5
  0.2947086640183591   6   6   1   1
  0.2762718561543933   6   6   2   2
 -0.0192496264873928   6   6   3   1
  0.2717982471201169   6   6   3   3
 -0.0244351679262508   6   6   4   2
  0.2699551445146834   6   6   4   4
  0.0031131801509681   6   6   5   1
  0.0267395841159335   6   6   5   3
  0.2845814420709857   6   6   5   5
 -0.0042682710235454   6   6   6   2
 -0.0195047387145625   6   6   6   4
  0.2940207199315826   6   6   6   6
  0.0010061243423281   7   1   1   1
 -0.0016662744849673   7   1   2   2
 -0.0024076319501549   7   1   3   1
 -0.0231692713317424   7   1   3   3
 -0.0232063857154029   7   1   4   2
  0.0135791192667867   7   1   4   4
  0.0221028238261565   7   1   5   1
 -0.0136299593635944   7   1   5   3
 -0.0020164928031888   7   1   5   5
  0.0209753538045805   7   1   6   2
 -0.0033948306184300   7   1   6   4
 -0.0018207826313709   7   1   6   6
  0.0372530251285424   7   1   7   1
 -0.0028333713189817   7   2   2   1
 -0.0306570187405028   7   2   3   2
 -0.0255830749304435   7   2   4   1
 -0.0040046982648650   7   2   4   3
  0.0008145321036501   7   2   5   2
 -0.0100012417631048   7   2   5   4
  0.0322278104961750   7   2   6   1
  0.0173559895512756   7   2   6   3
  0.0056249539735787   7   2   6   5
  0.0461618844008054   7   2   7   2
 -0.0056552484567542   7   3   1   1
 -0.0401108116648090   7   3   2   2
 -0.0330749825391246   7   3   3   1
 -0.0074016766178459   7   3   3   3
  0.0013685807393802   7   3   4   2
 -0.0057880676583076   7   3   4   4
 -0.0335899511559264   7   3   5   1
  0.0005979761514235   7   3   5   3
  0.0052277256573214   7   3   5   5
  0.0369282071646484   7   3   6   2
  0.0150658420587917   7   3   6   4
 -0.0022218666950676   7   3   6   6
  0.0053389917809948   7   3   7   1
  0.0506012469959668   7   3   7   3
 -0.0431935654052726   7   4   2   1
 -0.0008167549329113   7   4   3   2
  0.0417038004182900   7   4   4   1
  0.0043272179302674   7   4   4   3
 -0.0428397521527833   7   4   5   2
  0.0024344467730308   7   4   5   4
 -0.0046946932752532   7   4   6   1
  0.0449380681382524   7   4   6   3
 -0.0184638740723205   7   4   6   5
  0.0034224954010289   7   4   7   2
  0.0649999723599505   7   4   7   4
  0.0728533406832516   7   5   1   1
  0.0162188893961333   7   5   2   2
 -0.0549776398777716   7   5   3   1
  0.0122877035368631   7   5   3   3
 -0.0552730027466495   7   5   4   2
  0.0072307384822770   7   5   4   4
 -0.0038249321752566   7   5   5   1
  0.0563342044413985   7   5   5   3
  0.0196787180183767   7   5   5   5
  0.0083122871270371   7   5   6   2
 -0.0628717077314519   7   5   6   4
  0.0159420252125023   7   5   6   6
  0.0032434757217222   7   5   7   1
 -0.0091723743092082   7   5   7   3
  0.0676971835397988   7   5   7   5
  0.0897603374309269   7   6   2   1
  0.0849672783501902   7   6   3   2
 -0.0091648761281184   7   6   4   1
  0.0845793191757293   7   6   4   3
  0.0128296897282589   7   6   5   2
 -0.0962139079385578   7   6   5   4
 -0.0022508929850132   7   6   6   1
 -0.0071319464583174   7   6   6   3
 -0.0694369314872317   7   6   6   5
  0.0031656187834800   7   6   7   2
 -0.0050919514999351   7   6   7   4
  0.1030786599324616   7   6   7   6
  0.2744045006374645   7   7   1   1
  0.2768185980556777   7   7   2   2
  0.0010056161550734   7   7   3   1
  0.2727331478059611   7   7   3   3
 -0.0049965688579381   7   7   4   2
  0.2817577194321173   7   7   4   4
  0.0062335359710450   7   7   5   1
 -0.0023488512746528   7   7   5   3
  0.2754817973999487   7   7   5   5
  0.0021733044922018   7   7   6   2
 -0.0100142838777464   7   7   6   4
  0.2799410622394006   7   7   6   6
  0.0074559672042106   7   7   7   1
 -0.0097649840766030   7   7   7   3
  0.0103152220914268   7   7   7   5
  0.2952119127397558   7   7   7   7
  0.0019829013035386   8   1   2   1
 -0.0005448897659548   8   1   3   2
 -0.0008917725763814   8   1   4   1
  0.0193762654708906   8   1   4   3
 -0.0191621434475060   8   1   5   2
  0.0129517732607850   8   1   5   4
  0.0221345454796286   8   1   6   1
 -0.0178748230998795   8   1   6   3
 -0.0031778246753851   8   1   6   5
 -0.0122270101031240   8   1   7   2
 -0.0040157662196680   8   1   7   4
 -0.0071128962863139   8   1   7   6
  0.0349148069634257   8   1   8   1
  0.0027388618460387   8   2   1   1
  0.0005618059413430   8   2   2   2
 -0.0018774738228899   8   2   3   1
  0.0248280633917087   8   2   3   3
  0.0227270335302867   8   2   4   2
  0.0020528148952276   8   2   4   4
 -0.0243408022331214   8   2   5   1
 -0.0007009115939731   8   2   5   3
 -0.0098494948325624   8   2   5   5
 -0.0009701770287244   8   2   6   2
 -0.0151938176291927   8   2   6   4
 -0.0032778336942569   8   2   6   6
 -0.0209945354879488   8   2   7   1
 -0.0156025471118518   8   2   7   3
  0.0100871141612872   8   2   7   5
  0.0046416590301044   8   2   7   7
  0.0363926649305983   8   2   8   2
 -0.0014671926041218   8   3   2   1
  0.0277923337854410   8   3   3   2
  0.0267195362689721   8   3   4   1
  0.0029172108776628   8   3   4   3
 -0.0022890968299610   8   3   5   2
 -0.0004295266873655   8   3   5   4
 -0.0317380040329189   8   3   6   1
 -0.0009538387101900   8   3   6   3
  0.0207038061249626   8   3   6   5
 -0.0313007745080789   8   3   7   2
 -0.0220322347303321   8   3   7   4
  0.0024629606154455   8   3   7   6
 -0.0014881912872423   8   3   8   1
  0.0533063720900639   8   3   8   3
  0.0068817914102802   8   4   1   1
  0.0413269812950198   8   4   2   2
  0.0329062990027612   8   4   3   1
  0.0081069716030724   8   4   3   3
 -0.0023990058446049   8   4   4   2
  0.0078513563298266   8   4   4   4
  0.0344247719425850   8   4   5   1
 -0.0000705256123466   8   4   5   3
  0.0018897004807769   8   4   5   5
 -0.0371183089174773   8   4   6   2
 -0.0103405526355782   8   4   6   4
 -0.0015292444947119   8   4   6   6
 -0.0047840946832137   8   4   7   1
 -0.0459670409435724   8   4   7   3
  0.0130979359533684   8   4   7   5
  0.0098359019018968   8   4   7   7
  0.0106195922279199   8   4   8   2
  0.0496860377132458   8   4   8   4
 -0.0535260939569101   8   5   2   1
 -0.0095196806943741   8   5   3   2
  0.0435863321800430   8   5   4   1
 -0.0047872115732890   8   5   4   3
 -0.0440723649323422   8   5   5   2
  0.0058975607971420   8   5   5   4
 -0.0056351629638060   8   5   6   1
  0.0549482416552409   8   5   6   3
  0.0133527834893552   8   5   6   5
  0.0112727381862659   8   5   7   2
  0.0453344171400184   8   5   7   4
 -0.0040560157840177   8   5   7   6
 -0.0129487210763676   8   5   8   1
  0.0011747409981694   8   5   8   3
  0.0599848199831306   8   5   8   5
  0.0785978546157700   8   6   1   1
  0.0130278817564330   8   6   2   2
 -0.0638011646917485   8   6   3   1
  0.0107155171068539   8   6   3   3
 -0.0622744287718201   8   6   4   2
 -0.0046512127653616   8   6   4   4
 -0.0071412516043903   8   6   5   1
  0.0737639352912909   8   6   5   3
  0.0284868100302904   8   6   5   5
  0.0001306033141595   8   6   6   2
 -0.0564753695140463   8   6   6   4
  0.0293992409834589   8   6   6   6
 -0.0075482762130293   8   6   7   1
  0.0031282480401446   8   6   7   3
  0.0576537732645690   8   6   7   5
 -0.0051673507020335   8   6   7   7
 -0.0018070193738946   8   6   8   2
 -0.0028259958200244   8   6   8   4
  0.0804882809561252   8   6   8   6
 -0.0782909257119580   8   7   2   1
 -0.0844286516190368   8   7   3   2
 -0.0024444965112608   8   7   4   1
 -0.0962680701038235   8   7   4   3
  0.0101231328633968   8   7   5   2
  0.0855853416382185   8   7   5   4
 -0.0088439745318934   8   7   6   1
  0.0080765782725363   8   7   6   3
  0.0690216423340063   8   7   6   5
  0.0066361038125585   8   7   7   2
 -0.0012472259829741   8   7   7   4
 -0.0886934388946030   8   7   7   6
 -0.0165290605490132   8   7   8   1
 -0.0046945281927533   8   7   8   3
  0.0083179086933211   8   7   8   5
  0.1038743013936261   8   7   8   7
  0.2873374275219290   8   8   1   1
  0.2784087651048754   8   8   2   2
 -0.0101403080381079   8   8   3   1
  0.2954045988222623   8   8   3   3
  0.0051561569225361   8   8   4   2
  0.2768179828707991   8   8   4   4
 -0.0164852929465733   8   8   5   1
  0.0152835611269339   8   8   5   3
  0.2837370981214592   8   8   5   5
 -0.0066677043832822   8   8   6   2
 -0.0159865756186654   8   8   6   4
  0.2878709200115659   8   8   6   6
 -0.0205221937752142   8   8   7   1
 -0.0097076032403536   8   8   7   3
  0.0169929725630485   8   8   7   5
  0.2883579134991903   8   8   7   7
  0.0230269194844183   8   8   8   2
  0.0104244349290986   8   8   8   4
  0.0159789228841797   8   8   8   6
  0.3170502574738145   8   8   8   8
 -0.0015164490469212   9   1   1   1
 -0.0003607317698133   9   1   2   2
  0.0007531818776504   9   1   3   1
  0.0005164412236498   9   1   3   3
  0.0008408243202289   9   1   4   2
 -0.0157874403989216   9   1   4   4
 -0.0017311793371092   9   1   5   1
  0.0162624404936996   9   1   5   3
  0.0118956166158577   9   1   5   5
 -0.0183912028846011   9   1   6   2
  0.0164429266690285   9   1   6   4
  0.0064567501930918   9   1   6   6
 -0.0182963023964399   9   1   7   1
  0.0112900485220227   9   1   7   3
 -0.0122313590425664   9   1   7   5
 -0.0136475512514154   9   1   7   7
 -0.0128584192975877   9   1   8   2
 -0.0077807719744365   9   1   8   4
  0.0130831962097726   9   1   8   6
  0.0002984498866935   9   1   8   8
  0.0315748379648304   9   1   9   1
 -0.0001745012651267   9   2   2   1
  0.0015609222812513   9   2   3   2
  0.0005718484643942   9   2   4   1
 -0.0188592353601185   9   2   4   3
  0.0185944890981682   9   2   5   2
  0.0000670808552309   9   2   5   4
 -0.0215854483477688   9   2   6   1
  0.0014857045785505   9   2   6   3
 -0.0227642499189078   9   2   6   5
 -0.0034374974811157   9   2   7   2
  0.0240944419354990   9   2   7   4
 -0.0018373522541455   9   2   7   6
 -0.0194404556409030   9   2   8   1
 -0.0212550643298623   9   2   8   3
 -0.0000072884847741   9   2   8   5
  0.0165574480190404   9   2   8   7
  0.0445046395760408   9   2   9   2
 -0.0034415667677417   9   3   1   1
 -0.0015556862488647   9   3   2   2
  0.0017316829580011   9   3   3   1
 -0.0254434440803247   9   3   3   3
 -0.0222034245601501   9   3   4   2
 -0.0033616787938708   9   3   4   4
  0.0237641816104225   9   3   5   1
  0.0001887318918799   9   3   5   3
  0.0043860268188340   9   3   5   5
  0.0014712330646607   9   3   6   2
  0.0114425845985680   9   3   6   4
  0.0068916388348698   9   3   6   6
  0.0210446204150888   9   3   7   1
  0.0121405740007039   9   3   7   3
 -0.0135585852039543   9   3   7   5
 -0.0047160175006632   9   3   7   7
 -0.0329485200375424   9   3   8   2
 -0.0140421910647876   9   3   8   4
  0.0019340311521932   9   3   8   6
 -0.0243233098572281   9   3   8   8
  0.0101130453236795   9   3   9   1
  0.0353518202522697   9   3   9   3
 -0.0040530888648485   9   4   2   1
 -0.0310180048154641   9   4   3   2
 -0.0245067807959773   9   4   4   1
 -0.0046844307281132   9   4   4   3
 -0.0005110835279834   9   4   5   2
 -0.0044016130904239   9   4   5   4
  0.0324380421715529   9   4   6   1
  0.0135013408684381   9   4   6   3
  0.0064828879692526   9   4   6   5
  0.0419982468683333   9   4   7   2
  0.0035030675215917   9   4   7   4
  0.0060676369506888   9   4   7   6
 -0.0082206146576764   9   4   8   1
 -0.0309895902828555   9   4   8   3
  0.0150237743533163   9   4   8   5
  0.0066141893386892   9   4   8   7
 -0.0044268569670376   9   4   9   2
  0.0449815489741287   9   4   9   4
 -0.0036854298479182   9   5   1   1
  0.0381642118925156   9   5   2   2
  0.0399620350027636   9   5   3   1
  0.0049054579665064   9   5   3   3
  0.0038429179223181   9   5   4   2
 -0.0035476201612325   9   5   4   4
  0.0348732483969736   9   5   5   1
  0.0026355393001353   9   5   5   3
  0.0053714611400347   9   5   5   5
 -0.0492876516374190   9   5   6   2
  0.0084188109898617   9   5   6   4
  0.0057312319899600   9   5   6   6
 -0.0156404235651390   9   5   7   1
 -0.0372089889544820   9   5   7   3
 -0.0091288669408534   9   5   7   5
 -0.0046229652092072   9   5   7   7
 -0.0006757973299856   9   5   8   2
  0.0379054367134082   9   5   8   4
  0.0029770899443155   9   5   8   6
  0.0070985151002797   9   5   8   8
  0.0161168076791145   9   5   9   1
  0.0003149202090999   9   5   9   3
  0.0535974153744751   9   5   9   5
 -0.0526562143107025   9   6   2   1
 -0.0036956822342758   9   6   3   2
  0.0492431331249375   9   6   4   1
  0.0133316971577212   9   6   4   3
 -0.0618006458474157   9   6   5   2
  0.0129079337626293   9   6   5   4
  0.0069925730689361   9   6   6   1
  0.0435808253091993   9   6   6   3
  0.0084537805942792   9   6   6   5
 -0.0027779101804943   9   6   7   2
  0.0444712342929036   9   6   7   4
 -0.0142867454915262   9   6   7   6
  0.0157956148285462   9   6   8   1
  0.0044578723255042   9   6   8   3
  0.0456465827763980   9   6   8   5
 -0.0133046553359240   9   6   8   7
 -0.0165157532813708   9   6   9   2
 -0.0017807546526818   9   6   9   4
  0.0679849046624839   9   6   9   6
 -0.0764423713611204   9   7   1   1
 -0.0178885826646233   9   7   2   2
  0.0570286670133098   9   7   3   1
  0.0088570695194496   9   7   3   3
  0.0800694748289207   9   7   4   2
 -0.0038862153017707   9   7   4   4
 -0.0182433816314830   9   7   5   1
 -0.0629709709681218   9   7   5   3
 -0.0264010485377620   9   7   5   5
 -0.0076246810249636   9   7   6   2
  0.0571693689673631   9   7   6   4
 -0.0270703056729679   9   7   6   6
 -0.0212746257351883   9   7   7   1
 -0.0006705823292286   9   7   7   3
 -0.0587433028123341   9   7   7   5
 -0.0060922468574734   9   7   7   7
  0.0207348169219210   9   7   8   2
  0.0000485568637271   9   7   8   4
 -0.0670595243247844   9   7   8   6
  0.0072510492975653   9   7   8   8
  0.0011516690869950   9   7   9   1
 -0.0213212888325486   9   7   9   3
  0.0069894016348188   9   7   9   5
  0.0888072718940412   9   7   9   7
 -0.0839066079319009   9   8   2   1
 -0.1046682163756209   9   8   3   2
 -0.0146047598406321   9   8   4   1
 -0.0852527573467395   9   8   4   3
 -0.0076007091786258   9   8   5   2
  0.0883928376343838   9   8   5   4
  0.0276124542269534   9   8   6   1
  0.0126039839259670   9   8   6   3
  0.0713738476333782   9   8   6   5
  0.0298830839654333   9   8   7   2
  0.0032183136455813   9   8   7   4
 -0.0917845892952127   9   8   7   6
  0.0001890066215585   9   8   8   1
 -0.0275605209558620   9   8   8   3
  0.0128136153080184   9   8   8   5
  0.0913121534940301   9   8   8   7
 -0.0014991625603913   9   8   9   2
  0.0323272856061222   9   8   9   4
  0.0068810453435582   9   8   9   6
  0.1175807053558063   9   8   9   8
  0.2966739745259746   9   9   1   1
  0.3184302425880448   9   9   2   2
  0.0190382359938831   9   9   3   1
  0.2817981997159389   9   9   3   3
 -0.0212440112439035   9   9   4   2
  0.2858948550405961   9   9   4   4
  0.0384332297163887   9   9   5   1
  0.0164648633669261   9   9   5   3
  0.2931907601748021   9   9   5   5
 -0.0376294090814172   9   9   6   2
 -0.0186085048113713   9   9   6   4
  0.2976697345974400   9   9   6   6
 -0.0019524687740990   9   9   7   1
 -0.0421328038554170   9   9   7   3
  0.0197220494969523   9   9   7   5
  0.2991504160304586   9   9   7   7
  0.0010762831293001   9   9   8   2
  0.0444816267078682   9   9   8   4
  0.0164954286234452   9   9   8   6
  0.3034641030666750   9   9   8   8
 -0.0004480104538772   9   9   9   1
 -0.0022627749222047   9   9   9   3
  0.0418190031032571   9   9   9   5
 -0.0214699484960581   9   9   9   7
  0.3531712485212082   9   9   9   9
  0.0006845748872204  10   1   2   1
  0.0005080464813914  10   1   3   2
  0.0002774309896951  10   1   4   1
  0.0003108336928122  10   1   4   3
 -0.0013499238187389  10   1   5   2
  0.0131148836270270  10   1   5   4
  0.0007709229318287  10   1   6   1
 -0.0155090980888827  10   1   6   3
 -0.0261318983287520  10   1   6   5
 -0.0153850126747679  10   1   7   2
  0.0209942908249355  10   1   7   4
 -0.0117307807829498  10   1   7   6
  0.0158738357300506  10   1   8   1
 -0.0233224608881700  10   1   8   3
 -0.0144772897156683  10   1   8   5
 -0.0005739034620987  10   1   8   7
  0.0251398489316068  10   1   9   2
 -0.0143530397023680  10   1   9   4
  0.0012429334225340  10   1   9   6
 -0.0006334683987613  10   1   9   8
  0.0424241884054081  10   1  10   1
 -0.0018855000811985  10   2   1   1
 -0.0007320322393642  10   2   2   2
  0.0008479531519295  10   2   3   1
 -0.0000956000816182  10   2   3   3
  0.0008921666261394  10   2   4   2
 -0.0158162599226876  10   2   4   4
 -0.0015634854394519  10   2   5   1
  0.0152073079704466  10   2   5   3
  0.0084911202215211  10   2   5   5
 -0.0175762629441713  10   2   6   2
  0.0141040578784900  10   2   6   4
  0.0091861059340143  10   2   6   6
 -0.0175009325748368  10   2   7   1
  0.0090117909005772  10   2   7   3
 -0.0148068259809839  10   2   7   5
 -0.0143985483092283  10   2   7   7
 -0.0109043876507212  10   2   8   2
 -0.0100315628556317  10   2   8   4
  0.0139906700844364  10   2   8   6
 -0.0000283190071747  10   2   8   8
  0.0296668459869234  10   2   9   1
  0.0120177876130531  10   2   9   3
  0.0168274100263637  10   2   9   5
  0.0010948651490318  10   2   9   7
 -0.0008459563996381  10   2   9   9
  0.0306283275728463  10   2  10   2
 -0.0023821422126859  10   3   2   1
 -0.0002685467453132  10   3   3   2
  0.0007757996134167  10   3   4   1
 -0.0187240613093663  10   3   4   3
  0.0175264062694091  10   3   5   2
 -0.0091962797426824  10   3   5   4
 -0.0204388748802551  10   3   6   1
  0.0148817086293868  10   3   6   3
  0.0032424511316820  10   3   6   5
  0.0098330288965213  10   3   7   2
  0.0042777715816862  10   3   7   4
  0.0096881300995211  10   3   7   6
 -0.0316214829905795  10   3   8   1
  0.0009966531062524  10   3   8   3
  0.0157054975899767  10   3   8   5
  0.0180017518268244  10   3   8   7
  0.0190152904643424  10   3   9   2
  0.0105802861513018  10   3   9   4
 -0.0169493190658216  10   3   9   6
  0.0004197538635240  10   3   9   8
 -0.0148630737723715  10   3  10   1
  0.0327065595321159  10   3  10   3
  0.0007596971710979  10   4   1   1
 -0.0027229881530819  10   4   2   2
 -0.0032377239168937  10   4   3   1
 -0.0225276632634425  10   4   3   3
 -0.0223740683984657  10   4   4   2
  0.0096146379299733  10   4   4   4
  0.0200991694184627  10   4   5   1
 -0.0099857499032747  10   4   5   3
 -0.0024780954434357  10   4   5   5
  0.0183666766194106  10   4   6   2
 -0.0035923043194228  10   4   6   4
 -0.0024739604848884  10   4   6   6
  0.0337354728437061  10   4   7   1
  0.0056444489161303  10   4   7   3
  0.0037532353994522  10   4   7   5
  0.0099295898595795  10   4   7   7
 -0.0203436986219976  10   4   8   2
 -0.0054660544639619  10   4   8   4
 -0.0101962371979084  10   4   8   6
 -0.0227428089688309  10   4   8   8
 -0.0167918654980564  10   4   9   1
  0.0206604602115858  10   4   9   3
 -0.0189682995476445  10   4   9   5
 -0.0229975928214615  10   4   9   7
 -0.0034919768797410  10   4   9   9
 -0.0171279767915482  10   4  10   2
  0.0355830806894907  10   4  10   4
 -0.0032429706561612  10   5   2   1
  0.0289206151399619  10   5   3   2
  0.0286719863284845  10   5   4   1
 -0.0113686717750944  10   5   4   3
  0.0106621235253699  10   5   5   2
 -0.0027919155644781  10   5   5   4
 -0.0492300222293940  10   5   6   1
  0.0047847578918868  10   5   6   3
 -0.0020481057942203  10   5   6   5
 -0.0316059535437177  10   5   7   2
  0.0046206350278434  10   5   7   4
  0.0030422914686846  10   5   7   6
 -0.0203088856627853  10   5   8   1
  0.0316108523163907  10   5   8   3
  0.0057715001079691  10   5   8   5
  0.0117180417986942  10   5   8   7
  0.0207488358535037  10   5   9   2
 -0.0330122373684165  10   5   9   4
 -0.0102658307627678  10   5   9   6
 -0.0311812927605823  10   5   9   8
 -0.0007132682790923  10   5  10   1
  0.0207503784832158  10   5  10   3
  0.0529296724875356  10   5  10   5
  0.0006340623811925  10   6   1   1
 -0.0386872688808441  10   6   2   2
 -0.0376194830855540  10   6   3   1
  0.0186961592169195  10   6   3   3
  0.0220359964369657  10   6   4   2
 -0.0067961552490797  10   6   4   4
 -0.0593400251865113  10   6   5   1
  0.0059804823449088  10   6   5   3
 -0.0039369193485557  10   6   5   5
  0.0329837438737974  10   6   6   2
 -0.0032043571453390  10   6   6   4
 -0.0042487447850976  10   6   6   6
 -0.0203427060822069  10   6   7   1
  0.0342072519499208  10   6   7   3
  0.0036383097206330  10   6   7   5
 -0.0075937247958032  10   6   7   7
  0.0233601330053332  10   6   8   2
 -0.0352637955190149  10   6   8   4
  0.0073047479311922  10   6   8   6
  0.0195331519197678  10   6   8   8
  0.0015435864403282  10   6   9   1
 -0.0236249456248676  10   6   9   3
 -0.0359304146477683  10   6   9   5
  0.0224617367386121  10   6   9   7
 -0.0434872154598080  10   6   9   9
  0.0014779344171457  10   6  10   2
 -0.0209008756965276  10   6  10   4
  0.0651189840005103  10   6  10   6
 -0.0499186220801348  10   7   2   1
  0.0176270113744636  10   7   3   2
  0.0653612130415168  10   7   4   1
  0.0042212911942674  10   7   4   3
 -0.0485348297477242  10   7   5   2
  0.0091211938368015  10   7   5   4
 -0.0294334726493707  10   7   6   1
  0.0436352679291113  10   7   6   3
  0.0059274232197694  10   7   6   5
 -0.0252990981867255  10   7   7   2
  0.0442912277306567  10   7   7   4
 -0.0100426985298097  10   7   7   6
 -0.0010794424984122  10   7   8   1
  0.0273504193862814  10   7   8   3
  0.0466732613611714  10   7   8   5
 -0.0026278300218233  10   7   8   7
  0.0006966710928808  10   7   9   2
 -0.0260067268168946  10   7   9   4
  0.0536724109174337  10   7   9   6
 -0.0188752069835820  10   7   9   8
  0.0002409733987469  10   7  10   1
  0.0009556976459148  10   7  10   3
  0.0317452321301306  10   7  10   5
  0.0745463882287261  10   7  10   7
  0.0739383647033552  10   8   1   1
 -0.0209561247147341  10   8   2   2
 -0.0918057928591784  10   8   3   1
  0.0082023819602096  10   8   3   3
 -0.0568413741615200  10   8   4   2
 -0.0023287168149803  10   8   4   4
 -0.0393715080117980  10   8   5   1
  0.0657143514404398  10   8   5   3
  0.0212840315692296  10   8   5   5
  0.0412319198789930  10   8   6   2
 -0.0584967624732224  10   8   6   4
  0.0215653001248099  10   8   6   6
  0.0028188962523086  10   8   7   1
  0.0349696679206876  10   8   7   3
  0.0606285627330031  10   8   7   5
 -0.0007435056016221  10   8   7   7
  0.0017684407798783  10   8   8   2
 -0.0355765589769965  10   8   8   4
  0.0710816393336344  10   8   8   6
  0.0112437734244189  10   8   8   8
 -0.0009385773439599  10   8   9   1
 -0.0015724002926029  10   8   9   3
 -0.0445520352192979  10   8   9   5
 -0.0647663648219976  10   8   9   7
 -0.0244036883458075  10   8   9   9
 -0.0010612350860720  10   8  10   2
  0.0041190053965026  10   8  10   4
  0.0428817352504098  10   8  10   6
  0.1074184861104090  10   8  10   8
  0.1327266964391983  10   9   2   1
  0.0852631426565466  10   9   3   2
 -0.0513985161993184  10   9   4   1
  0.0808818224604264  10   9   4   3
  0.0552936418660329  10   9   5   2
 -0.0964537480823698  10   9   5   4
  0.0038143974084583  10   9   6   1
 -0.0566074912486147  10   9   6   3
 -0.0767483990484253  10   9   6   5
 -0.0036395511865882  10   9   7   2
 -0.0479353107731456  10   9   7   4
  0.1007734803287591  10   9   7   6
  0.0021978020966940  10   9   8   1
 -0.0010102716125781  10   9   8   3
 -0.0605302593126191  10   9   8   5
 -0.0890639357538591  10   9   8   7
 -0.0002873213234792  10   9   9   2
 -0.0053558410328178  10   9   9   4
 -0.0604594782152189  10   9   9   6
 -0.0968075786144472  10   9   9   8
  0.0008110808322586  10   9  10   1
 -0.0029532961239665  10   9  10   3
 -0.0033337257482882  10   9  10   5
 -0.0583568430755288  10   9  10   7
  0.1569122179478701  10   9  10   9
  0.3736995043090216  10  10   1   1
  0.2993117011165449  10  10   2   2
 -0.0741052080005288  10  10   3   1
  0.2922045949163355  10  10   3   3
 -0.0791459929279656  10  10   4   2
  0.2858412207006861  10  10   4   4
 -0.0013717656180689  10  10   5   1
  0.0833556596209696  10  10   5   3
  0.3173061657233898  10  10   5   5
  0.0042279854821400  10  10   6   2
 -0.0784494851712462  10  10   6   4
  0.3221778144401203  10  10   6   6
  0.0010202325188625  10  10   7   1
 -0.0068023689060495  10  10   7   3
  0.0821089712943146  10  10   7   5
  0.3015455392046181  10  10   7   7
  0.0029659738320746  10  10   8   2
  0.0087183705283483  10  10   8   4
  0.0892830441565893  10  10   8   6
  0.3183730306674507  10  10   8   8
 -0.0016590533620602  10  10   9   1
 -0.0041357028124611  10  10   9   3
 -0.0036473811598835  10  10   9   5
 -0.0882287998378194  10  10   9   7
  0.3322028252647813  10  10   9   9
 -0.0023159252179712  10  10  10   2
  0.0008755947241405  10  10  10   4
  0.0001480390364188  10  10  10   6
  0.0861154301360732  10  10  10   8
  0.4256603895892513  10  10  10  10
 -2.9465084236153607   1   1   0   0
 -2.7674832024038851   2   2   0   0
  0.1408903653633693   3   1   0   0
 -2.6357514284714716   3   3   0   0
  0.2060890548036262   4   2   0   0
 -2.5069263287899313   4   4   0   0
 -0.0466414582237345   5   1   0   0
 -0.2327517084558026   5   3   0   0
 -2.4582792042124306   5   5   0   0
  0.0691681898595183   6   2   0   0
  0.2533066365381434   6   4   0   0
 -2.3147812297035832   6   6   0   0
  0.0275102385656585   7   1   0   0
  0.1276513463965146   7   3   0   0
 -0.2109101744388234   7   5   0   0
 -2.0681445941463501   7   7   0   0
 -0.0567984986193236   8   2   0   0
 -0.0936121357181135   8   4   0   0